ITEM: TIMESTEP
100000
ITEM: NUMBER OF ATOMS
2048
ITEM: BOX BOUNDS pp pp pp
0.0000000000000000e+00 1.1093780389610155e+01
0.0000000000000000e+00 1.1093780389610155e+01
0.0000000000000000e+00 1.1093780389610155e+01
ITEM: ATOMS id type xs ys zs
5 1 0.128362 1.0025 0.998189
19 1 0.560839 0.998326 0.0595635
29 1 0.873458 1.00248 0.00232534
6 1 0.186919 0.0623986 0.00050262
10 1 0.315055 0.0658653 1.00007
30 1 0.941428 0.0581653 0.00227454
45 1 0.371057 0.128406 0.000231617
59 1 0.81726 0.120718 0.0626275
61 1 0.877954 0.123114 -4.66242e-05
33 1 0.00274013 0.123684 1.00209
34 1 0.0659064 0.187536 0.999637
42 1 0.311708 0.184351 0.00359112
54 1 0.683631 0.191302 1.00023
58 1 0.815066 0.187476 5.17106e-05
62 1 0.937877 0.18759 0.00198705
69 1 0.122789 0.251696 0.99771
77 1 0.371779 0.246546 -0.000307851
93 1 0.877418 0.250197 -0.00347086
65 1 0.998459 0.245585 0.00527946
66 1 0.0602901 0.310291 -0.000682246
74 1 0.311509 0.308676 0.998174
86 1 0.691493 0.311543 0.0033411
90 1 0.81326 0.312338 0.995545
101 1 0.125169 0.376899 1.00005
109 1 0.377123 0.368105 0.000298924
111 1 0.437373 0.372347 0.0611229
115 1 0.5646 0.372434 0.0581909
117 1 0.627162 0.373832 1.0005
121 1 0.747552 0.376933 0.998047
106 1 0.312188 0.434898 0.999067
110 1 0.437385 0.43765 0.000534303
114 1 0.562657 0.437084 0.00116631
122 1 0.813374 0.437316 0.999384
137 1 0.249534 0.500172 0.999819
141 1 0.37301 0.499129 0.999424
145 1 0.50079 0.495165 1.00025
149 1 0.626724 0.497462 0.999485
153 1 0.752728 0.497422 1.00025
157 1 0.877317 0.49628 0.00164742
138 1 0.310664 0.560751 1.00007
142 1 0.435104 0.558857 0.996804
154 1 0.813063 0.558798 1.00026
158 1 0.936135 0.56258 0.00341251
173 1 0.375074 0.622484 1.0001
177 1 0.50025 0.623902 0.999176
162 1 0.0654995 0.68428 0.00352887
166 1 0.190793 0.687226 0.00133022
178 1 0.564755 0.688994 0.997965
182 1 0.688995 0.688762 0.997984
205 1 0.376587 0.748302 0.00229384
207 1 0.437031 0.754866 0.0626833
209 1 0.502368 0.752687 0.998357
217 1 0.7512 0.749605 0.00370099
221 1 0.878649 0.74942 0.00192213
200 1 0.128879 0.813035 0.0598102
198 1 0.193975 0.813993 0.997653
202 1 0.309638 0.810381 0.996356
208 1 0.374608 0.815123 0.0629122
210 1 0.564441 0.812322 0.000667238
214 1 0.687276 0.817434 -0.00143099
218 1 0.815148 0.814737 0.00152603
196 1 0.000456237 0.814614 0.0625812
227 1 0.065993 0.873147 0.0572454
229 1 0.125044 0.874215 0.996874
233 1 0.253652 0.877271 1.00064
237 1 0.375734 0.874278 1.00117
245 1 0.624664 0.874717 0.000628784
249 1 0.749173 0.874306 1.00197
228 1 0.997775 0.936752 0.0631889
230 1 0.189113 0.939679 0.998479
238 1 0.443546 0.937475 0.00364927
250 1 0.815014 0.936701 0.000753913
1 1 3.94819e-05 0.997613 0.00202611
13 1 0.373085 0.999079 0.998055
248 1 0.622861 0.93649 0.0641717
246 1 0.685384 0.937874 -4.25929e-06
23 1 0.684531 0.996471 0.0634746
8 1 0.122204 0.0639922 0.0678796
12 1 0.252248 0.0634873 0.0636525
16 1 0.376594 0.0602058 0.0610797
20 1 0.499393 0.0623952 0.0576675
24 1 0.627776 0.0608416 0.0592545
28 1 0.748638 0.0612116 0.0642537
32 1 0.875367 0.0607252 0.0636145
4 1 0.997069 0.0603988 0.0652796
35 1 0.0616023 0.125126 0.0653683
39 1 0.184842 0.12775 0.0634601
43 1 0.312414 0.123078 0.0620659
47 1 0.436271 0.123752 0.058709
51 1 0.558079 0.12432 0.0607594
55 1 0.686466 0.122469 0.0611478
63 1 0.93875 0.12394 0.0636759
36 1 0.000115451 0.186811 0.0662095
40 1 0.124796 0.187038 0.0628745
44 1 0.248748 0.186935 0.0637429
48 1 0.372679 0.18867 0.0610842
52 1 0.499678 0.186906 0.0585872
56 1 0.620008 0.190045 0.0590351
60 1 0.753192 0.184875 0.0659751
64 1 0.87578 0.192042 0.0627683
67 1 0.0641095 0.25009 0.0661537
71 1 0.185622 0.245985 0.0645439
75 1 0.3106 0.251137 0.0630158
79 1 0.43776 0.249044 0.058473
83 1 0.561989 0.252601 0.0585647
87 1 0.689011 0.247189 0.0622115
91 1 0.815244 0.254221 0.06215
95 1 0.938134 0.251703 0.0640825
72 1 0.129216 0.312606 0.0589307
76 1 0.245958 0.310455 0.0621133
80 1 0.372857 0.310739 0.0609115
84 1 0.50035 0.31629 0.0619649
338 1 0.55808 0.311847 0.127989
88 1 0.625606 0.311161 0.0593786
92 1 0.751763 0.310116 0.0660206
96 1 0.876092 0.314006 0.0672177
68 1 -0.00257614 0.31057 0.0613219
99 1 0.0619713 0.371547 0.0655516
103 1 0.183598 0.373345 0.063142
107 1 0.310442 0.375902 0.0641291
119 1 0.68891 0.373631 0.06353
123 1 0.812401 0.374633 0.0626093
127 1 0.937318 0.374949 0.0599642
104 1 0.124 0.436291 0.0615272
108 1 0.249902 0.442447 0.0670026
112 1 0.370493 0.436177 0.0605073
116 1 0.502364 0.435378 0.0614061
120 1 0.627151 0.436069 0.0618559
124 1 0.749666 0.439358 0.0589145
128 1 0.877883 0.436546 0.0631581
100 1 0.00295803 0.438931 0.061829
131 1 0.0611917 0.498886 0.0615095
135 1 0.187543 0.499748 0.0605579
139 1 0.309762 0.500225 0.0644494
143 1 0.433445 0.501498 0.0630915
147 1 0.562833 0.500879 0.0610748
151 1 0.687387 0.499221 0.0638316
155 1 0.813377 0.498755 0.0631121
159 1 0.93691 0.498974 0.06414
132 1 1.00121 0.563766 0.0618335
136 1 0.125561 0.560617 0.0640585
140 1 0.246586 0.562993 0.0639644
144 1 0.373547 0.560564 0.06176
148 1 0.503928 0.56181 0.0638143
152 1 0.627488 0.561982 0.0639147
156 1 0.750581 0.565318 0.0671971
160 1 0.87221 0.564008 0.0628385
163 1 0.0648471 0.622937 0.0607038
167 1 0.188713 0.625521 0.064563
171 1 0.312906 0.624203 0.0649378
175 1 0.435778 0.624292 0.0637536
179 1 0.561297 0.624687 0.0601236
183 1 0.688979 0.622127 0.0622294
187 1 0.811509 0.622063 0.0670578
191 1 0.938621 0.624706 0.062903
168 1 0.129311 0.687011 0.0670946
172 1 0.251277 0.689077 0.0645051
176 1 0.375517 0.683564 0.0619659
180 1 0.498069 0.692078 0.0570414
184 1 0.62104 0.683436 0.0609507
188 1 0.748304 0.683223 0.058888
192 1 0.875192 0.683874 0.0630993
164 1 0.0041052 0.683611 0.0616497
195 1 0.0648605 0.74982 0.0626735
199 1 0.193171 0.751093 0.0592981
203 1 0.314796 0.749757 0.0573418
211 1 0.563646 0.748121 0.0616316
215 1 0.687449 0.745337 0.0629298
219 1 0.813449 0.745603 0.0636757
223 1 0.941547 0.751095 0.0658095
204 1 0.252686 0.81547 0.0599575
212 1 0.495688 0.813104 0.0633285
216 1 0.627582 0.810526 0.0608972
220 1 0.747078 0.810929 0.061188
224 1 0.877456 0.809589 0.0658652
231 1 0.187021 0.873044 0.0602398
235 1 0.312902 0.876552 0.0577803
239 1 0.439059 0.876271 0.0640611
243 1 0.561861 0.872859 0.0599742
247 1 0.687664 0.875747 0.0638742
251 1 0.812512 0.874144 0.069029
255 1 0.93803 0.873962 0.061887
232 1 0.125146 0.939445 0.0614002
236 1 0.253441 0.941353 0.0599045
240 1 0.373189 0.934593 0.0632084
244 1 0.500642 0.939251 0.0669835
252 1 0.749458 0.934658 0.0643969
256 1 0.876528 0.937196 0.06234
3 1 0.0629646 -0.000637802 0.0617979
7 1 0.191315 1.0004 0.0627139
11 1 0.317263 0.000964373 0.0620701
15 1 0.439788 1.00006 0.0664116
27 1 0.812302 0.996981 0.0631327
31 1 0.933854 0.997272 0.0628175
261 1 0.126042 -0.000218052 0.124757
281 1 0.750187 0.997679 0.123932
258 1 0.0627937 0.0647633 0.126862
262 1 0.189571 0.062784 0.12376
266 1 0.313409 0.0585095 0.125042
270 1 0.437892 0.0636395 0.123159
274 1 0.563781 0.0597853 0.121392
278 1 0.681949 0.061131 0.124157
282 1 0.809397 0.0621492 0.126383
286 1 0.939058 0.0617817 0.126307
289 1 0.00469506 0.124405 0.126444
293 1 0.123976 0.123983 0.127682
297 1 0.254008 0.126289 0.127866
301 1 0.374487 0.128783 0.124022
305 1 0.499815 0.125935 0.125264
309 1 0.623294 0.123745 0.120533
313 1 0.750191 0.122673 0.126022
317 1 0.87633 0.120965 0.121494
290 1 0.0663607 0.188028 0.126883
294 1 0.18999 0.18509 0.128339
298 1 0.311817 0.18932 0.126004
302 1 0.43992 0.18921 0.119972
306 1 0.565747 0.185616 0.124451
310 1 0.686505 0.184003 0.125237
314 1 0.812839 0.182 0.126059
318 1 0.935716 0.188544 0.123458
325 1 0.127714 0.247231 0.124755
329 1 0.251404 0.249069 0.123934
333 1 0.375801 0.253037 0.121996
337 1 0.499568 0.252687 0.121576
341 1 0.623193 0.25235 0.121191
345 1 0.752709 0.247077 0.121246
349 1 0.873026 0.251147 0.125511
321 1 1.00055 0.25077 0.12558
322 1 0.068034 0.307719 0.128139
326 1 0.185656 0.31222 0.124325
330 1 0.30972 0.310391 0.120492
334 1 0.435747 0.313099 0.12438
342 1 0.684447 0.311687 0.120779
346 1 0.812347 0.313126 0.125919
350 1 0.93722 0.315156 0.125714
357 1 0.12833 0.378842 0.126034
361 1 0.251381 0.372486 0.123695
365 1 0.373192 0.372798 0.12205
369 1 0.495341 0.374375 0.127685
373 1 0.624608 0.375778 0.124834
377 1 0.749006 0.376876 0.121924
381 1 0.872332 0.376045 0.125556
353 1 -0.00144845 0.370952 0.123198
354 1 0.065481 0.438254 0.125325
358 1 0.181838 0.445238 0.12529
362 1 0.311614 0.438022 0.126032
366 1 0.437855 0.437891 0.122345
370 1 0.562042 0.435799 0.121747
374 1 0.683547 0.438224 0.128629
378 1 0.812695 0.437907 0.12433
382 1 0.93594 0.436113 0.12445
389 1 0.124097 0.502741 0.123857
393 1 0.24945 0.497795 0.128358
397 1 0.375725 0.503191 0.125806
401 1 0.500793 0.501281 0.124902
405 1 0.629365 0.503215 0.1261
409 1 0.750164 0.499167 0.12519
413 1 0.874388 0.498563 0.126313
385 1 0.00360909 0.500434 0.124281
386 1 0.0618305 0.56268 0.12811
390 1 0.188183 0.56388 0.128796
394 1 0.312769 0.559972 0.123608
398 1 0.437284 0.563065 0.122729
402 1 0.567641 0.565403 0.125103
406 1 0.68742 0.561048 0.126617
410 1 0.814904 0.56025 0.129069
414 1 0.937515 0.562323 0.125295
417 1 0.00331965 0.626256 0.128789
421 1 0.127121 0.624432 0.124192
425 1 0.251409 0.624481 0.125008
429 1 0.376628 0.623941 0.123757
433 1 0.504087 0.630685 0.122799
437 1 0.624988 0.626657 0.123714
441 1 0.75084 0.624893 0.128579
445 1 0.874576 0.623827 0.125626
418 1 0.0672329 0.684916 0.126692
422 1 0.191159 0.689939 0.128389
426 1 0.313158 0.691554 0.12349
430 1 0.438052 0.689277 0.121574
434 1 0.560852 0.689053 0.125117
438 1 0.687756 0.683317 0.125112
442 1 0.814295 0.685433 0.126763
446 1 0.939944 0.686808 0.124931
449 1 -1.52068e-05 0.748005 0.124556
453 1 0.126872 0.751023 0.12389
457 1 0.251186 0.75037 0.126142
461 1 0.378121 0.751566 0.123135
465 1 0.502099 0.750227 0.122725
469 1 0.6206 0.752807 0.121319
473 1 0.750747 0.746571 0.127053
477 1 0.87397 0.743707 0.12698
450 1 0.0662852 0.812161 0.124885
454 1 0.188244 0.813048 0.125632
458 1 0.309705 0.815349 0.129704
462 1 0.435685 0.817099 0.126935
466 1 0.558766 0.81239 0.123849
470 1 0.684929 0.807768 0.121858
474 1 0.809804 0.806727 0.123541
478 1 0.943668 0.816845 0.125836
485 1 0.125057 0.880381 0.123756
489 1 0.250264 0.877341 0.121231
493 1 0.371261 0.873931 0.1304
497 1 0.501991 0.874238 0.127798
501 1 0.624464 0.870943 0.122849
505 1 0.750825 0.874291 0.126321
509 1 0.881661 0.873451 0.128755
481 1 0.00540443 0.876448 0.126134
482 1 0.0645542 0.941093 0.121368
486 1 0.185444 0.938571 0.122789
490 1 0.312949 0.934727 0.124727
494 1 0.435614 0.937092 0.124788
498 1 0.560933 0.936447 0.123144
502 1 0.683573 0.934452 0.125173
506 1 0.815176 0.93654 0.124745
510 1 0.941877 0.934338 0.123732
257 1 0.0032273 1.00008 0.125328
265 1 0.250624 0.997593 0.123651
269 1 0.378272 -0.00332118 0.123245
273 1 0.501582 0.00270038 0.125955
277 1 0.624399 -0.00107359 0.12393
285 1 0.87626 0.998015 0.125473
263 1 0.188218 0.00170176 0.185822
279 1 0.685223 -0.00459103 0.183538
283 1 0.810432 1.00262 0.185632
260 1 0.00251268 0.0591346 0.189999
264 1 0.123785 0.0648459 0.186636
268 1 0.251641 0.0596639 0.185663
272 1 0.376665 0.0612548 0.186017
276 1 0.501214 0.0600207 0.190305
280 1 0.62248 0.0618805 0.185591
284 1 0.745816 0.0590914 0.1832
288 1 0.875625 0.0606759 0.18761
291 1 0.062456 0.126063 0.188289
295 1 0.194879 0.12299 0.184637
299 1 0.318284 0.125716 0.186293
303 1 0.436257 0.126297 0.188513
307 1 0.560392 0.125036 0.186629
311 1 0.686155 0.1247 0.184945
315 1 0.811392 0.123015 0.190154
319 1 0.943153 0.124496 0.184523
296 1 0.131008 0.185301 0.185251
300 1 0.254068 0.191159 0.189694
304 1 0.376846 0.189558 0.187393
308 1 0.505717 0.186792 0.186098
312 1 0.624142 0.186277 0.182803
316 1 0.750581 0.190462 0.183256
320 1 0.877307 0.178507 0.187315
292 1 0.00114706 0.187021 0.186378
323 1 0.0625564 0.248798 0.187004
327 1 0.18717 0.249255 0.188109
331 1 0.316509 0.250929 0.185023
335 1 0.442703 0.249697 0.1844
339 1 0.560132 0.252336 0.187378
343 1 0.688333 0.248364 0.183516
347 1 0.813018 0.249772 0.18775
351 1 0.936615 0.247869 0.18764
324 1 0.998482 0.309752 0.186037
328 1 0.124711 0.312697 0.191436
332 1 0.249656 0.311997 0.186079
336 1 0.378466 0.310089 0.189665
340 1 0.499602 0.312555 0.18908
344 1 0.628693 0.307622 0.182264
348 1 0.749759 0.313003 0.183813
352 1 0.874907 0.312418 0.189623
355 1 0.0590041 0.36846 0.186006
359 1 0.190004 0.376936 0.185384
363 1 0.313251 0.367808 0.184826
367 1 0.436139 0.374814 0.187977
371 1 0.560707 0.373925 0.184031
375 1 0.689561 0.37224 0.185556
379 1 0.810821 0.371183 0.187759
383 1 0.937556 0.377041 0.188896
360 1 0.12434 0.436775 0.187682
364 1 0.248664 0.433033 0.190355
368 1 0.374689 0.435299 0.186578
372 1 0.499939 0.435252 0.191162
376 1 0.620694 0.434899 0.19017
380 1 0.753108 0.433519 0.185612
384 1 0.872733 0.439275 0.187955
356 1 0.997988 0.435829 0.185454
387 1 0.058782 0.499496 0.192189
391 1 0.185907 0.50095 0.191796
395 1 0.314725 0.501573 0.189859
399 1 0.440701 0.499349 0.186096
403 1 0.563431 0.498277 0.188692
407 1 0.692428 0.504817 0.188864
411 1 0.81241 0.496964 0.187088
415 1 0.938389 0.499467 0.187445
388 1 0.996218 0.563075 0.186841
392 1 0.124575 0.560667 0.192607
396 1 0.251597 0.562588 0.189335
400 1 0.377857 0.563293 0.186193
404 1 0.502585 0.560561 0.185471
408 1 0.627172 0.563539 0.189455
412 1 0.752867 0.563571 0.188093
416 1 0.873885 0.559397 0.185586
419 1 0.0628592 0.626107 0.189
423 1 0.188294 0.622155 0.187291
427 1 0.312449 0.626954 0.182746
431 1 0.438822 0.628023 0.181384
435 1 0.565696 0.62602 0.187263
439 1 0.684088 0.625147 0.186856
443 1 0.812699 0.623161 0.18681
447 1 0.9375 0.623834 0.186675
420 1 -0.000256103 0.689429 0.184895
424 1 0.123594 0.688796 0.186247
428 1 0.250294 0.688455 0.184549
432 1 0.374547 0.68724 0.180407
436 1 0.494879 0.688984 0.188395
440 1 0.62322 0.686015 0.192018
444 1 0.752898 0.685606 0.192615
448 1 0.876457 0.684474 0.189541
451 1 0.0646413 0.752645 0.183422
455 1 0.184124 0.751489 0.188005
459 1 0.311203 0.749953 0.191405
463 1 0.434302 0.747527 0.187461
467 1 0.562224 0.75117 0.188022
471 1 0.686207 0.749834 0.183617
475 1 0.813508 0.752209 0.186386
479 1 0.939214 0.750694 0.185204
456 1 0.123717 0.813702 0.188985
460 1 0.248854 0.810779 0.188051
464 1 0.37512 0.810437 0.186859
468 1 0.497879 0.810438 0.187103
472 1 0.618217 0.813157 0.188733
476 1 0.746536 0.806973 0.182407
480 1 0.878256 0.811346 0.182256
452 1 0.00730847 0.812555 0.186182
483 1 0.0661878 0.88001 0.185509
487 1 0.184559 0.877065 0.184691
491 1 0.309796 0.874506 0.190425
495 1 0.43284 0.873995 0.188984
499 1 0.559343 0.876625 0.187559
503 1 0.689181 0.868859 0.182192
507 1 0.812006 0.868354 0.186532
511 1 0.940867 0.877223 0.187869
484 1 -0.00135592 0.937704 0.18402
488 1 0.128248 0.938104 0.185394
492 1 0.250479 0.936657 0.185226
496 1 0.370373 0.938613 0.18719
500 1 0.497037 0.939088 0.184838
504 1 0.621827 0.938935 0.185775
508 1 0.753027 0.935504 0.188548
512 1 0.874626 0.940908 0.186713
259 1 0.0664008 0.999368 0.186766
267 1 0.30845 0.998688 0.188887
271 1 0.438636 0.00375282 0.1873
275 1 0.560548 0.998304 0.18592
287 1 0.93787 0.000196451 0.18764
513 1 0.00195861 0.999607 0.252842
521 1 0.247467 0.00117149 0.250242
529 1 0.500193 0.99745 0.247886
537 1 0.747801 0.00338887 0.249009
541 1 0.874305 0.00130772 0.249127
514 1 0.0656289 0.0644922 0.250539
518 1 0.186391 0.064407 0.250499
522 1 0.318236 0.0605541 0.248342
526 1 0.437283 0.0621416 0.250358
530 1 0.566567 0.0629209 0.249486
534 1 0.687582 0.0611807 0.24925
538 1 0.809481 0.0657081 0.24942
542 1 0.935127 0.061648 0.248603
549 1 0.129207 0.125287 0.253855
553 1 0.251576 0.126645 0.247757
557 1 0.377229 0.124251 0.250876
561 1 0.501883 0.123258 0.246343
565 1 0.624807 0.128468 0.244447
569 1 0.750932 0.129962 0.248242
573 1 0.874239 0.121219 0.250378
545 1 0.00140429 0.12104 0.25447
546 1 0.0659071 0.187832 0.247834
550 1 0.186097 0.190388 0.251914
554 1 0.313318 0.186101 0.24802
558 1 0.437835 0.191687 0.251779
562 1 0.564874 0.187483 0.249792
566 1 0.688599 0.187305 0.247238
570 1 0.812797 0.186398 0.247351
574 1 0.939323 0.180007 0.253977
577 1 0.00216568 0.247107 0.24891
581 1 0.126027 0.252506 0.250949
585 1 0.252419 0.253058 0.24835
589 1 0.374943 0.249963 0.2488
593 1 0.502032 0.250782 0.251197
597 1 0.624866 0.246893 0.250195
601 1 0.75284 0.249036 0.246337
605 1 0.878712 0.245861 0.248746
578 1 0.059062 0.314149 0.252985
582 1 0.186681 0.314227 0.251309
586 1 0.316402 0.313639 0.250746
590 1 0.440201 0.313408 0.249769
594 1 0.563519 0.312245 0.248441
598 1 0.688822 0.309297 0.251
602 1 0.81272 0.311631 0.250812
606 1 0.938891 0.308143 0.250021
609 1 -0.000551171 0.375595 0.24599
613 1 0.120813 0.373983 0.25143
617 1 0.25333 0.370427 0.25097
621 1 0.376631 0.375019 0.250371
625 1 0.499955 0.373874 0.250802
629 1 0.622875 0.372234 0.248729
633 1 0.752365 0.372464 0.248572
637 1 0.87652 0.37158 0.254137
610 1 0.0608706 0.43552 0.249242
614 1 0.188497 0.435711 0.25211
618 1 0.311858 0.436029 0.247316
622 1 0.436581 0.438503 0.250372
626 1 0.560995 0.435931 0.248224
630 1 0.695344 0.442218 0.247622
634 1 0.813651 0.434086 0.250565
638 1 0.935684 0.436469 0.251864
645 1 0.12383 0.499633 0.250908
649 1 0.25165 0.500959 0.249002
653 1 0.377666 0.503609 0.25019
657 1 0.499252 0.497915 0.250658
661 1 0.628644 0.499761 0.246293
665 1 0.752435 0.50302 0.251413
669 1 0.874539 0.49866 0.249657
641 1 0.998872 0.496122 0.247753
642 1 0.060488 0.562544 0.248294
646 1 0.189197 0.563561 0.251509
650 1 0.310538 0.569182 0.245974
654 1 0.440648 0.56464 0.249419
658 1 0.566056 0.568042 0.246063
662 1 0.688143 0.559143 0.249162
666 1 0.818623 0.563203 0.249879
670 1 0.935212 0.563329 0.251043
673 1 0.9958 0.622636 0.252942
677 1 0.123676 0.624453 0.25455
681 1 0.249488 0.626543 0.247489
685 1 0.380498 0.624683 0.24958
689 1 0.504219 0.627979 0.246895
693 1 0.626146 0.625103 0.255278
697 1 0.749232 0.621095 0.253449
701 1 0.876999 0.62389 0.248609
674 1 0.0640428 0.68635 0.2515
678 1 0.188486 0.690793 0.248551
682 1 0.316078 0.685147 0.247684
686 1 0.436367 0.684515 0.249543
690 1 0.560489 0.693689 0.253126
694 1 0.685259 0.685948 0.256243
698 1 0.811092 0.685198 0.247854
702 1 0.939248 0.68774 0.247834
705 1 0.0014517 0.750119 0.246004
709 1 0.126383 0.750527 0.250324
713 1 0.250899 0.750232 0.250385
717 1 0.375793 0.751364 0.249649
721 1 0.495012 0.750782 0.246235
725 1 0.62447 0.75238 0.25006
729 1 0.750387 0.750346 0.247403
733 1 0.877256 0.750464 0.250667
706 1 0.0613373 0.813816 0.254566
710 1 0.189415 0.813235 0.249371
714 1 0.312429 0.811838 0.249899
718 1 0.438279 0.813995 0.256062
722 1 0.560737 0.808049 0.256041
726 1 0.686325 0.80966 0.248438
730 1 0.815756 0.811093 0.252129
734 1 0.938747 0.813851 0.25004
741 1 0.118743 0.871838 0.252723
745 1 0.248021 0.873919 0.24714
749 1 0.369188 0.87923 0.251839
753 1 0.496752 0.872715 0.250021
757 1 0.619817 0.876523 0.246794
761 1 0.751173 0.871993 0.247315
765 1 0.878489 0.877571 0.246222
737 1 1.00118 0.879942 0.246488
738 1 0.063731 0.938069 0.248596
742 1 0.188014 0.937094 0.248055
746 1 0.31009 0.942376 0.250957
750 1 0.436311 0.937576 0.252961
754 1 0.560991 0.938049 0.250991
758 1 0.68377 0.936563 0.247068
762 1 0.813071 0.941111 0.248011
766 1 0.937438 0.938141 0.251475
517 1 0.125871 1.00216 0.248855
525 1 0.379014 0.999518 0.25063
533 1 0.623223 0.00132305 0.24901
515 1 0.0619984 0.999676 0.310372
520 1 0.126384 0.0630565 0.313824
519 1 0.186023 -0.000953607 0.313273
531 1 0.56038 1.0015 0.314243
535 1 0.68422 1.00137 0.316663
539 1 0.812085 0.00376037 0.309701
543 1 0.935518 1.00165 0.313523
524 1 0.248206 0.061792 0.312955
528 1 0.376624 0.0625611 0.309567
532 1 0.499 0.0612219 0.31147
536 1 0.627698 0.063586 0.308116
540 1 0.746659 0.0658576 0.311976
544 1 0.875731 0.0646545 0.312298
516 1 0.999297 0.0610634 0.31279
547 1 0.067417 0.128502 0.312476
551 1 0.186498 0.131163 0.313817
555 1 0.308732 0.122123 0.312025
559 1 0.436148 0.125415 0.313339
563 1 0.559599 0.125209 0.313074
567 1 0.689067 0.126674 0.309911
571 1 0.812601 0.123091 0.311218
575 1 0.93715 0.121887 0.314758
548 1 0.00596578 0.188141 0.310969
552 1 0.12757 0.188855 0.315096
556 1 0.250663 0.186051 0.318669
560 1 0.37248 0.186377 0.313258
564 1 0.501115 0.190001 0.312619
568 1 0.625381 0.187489 0.31014
572 1 0.752907 0.188921 0.307454
576 1 0.873747 0.187746 0.307776
579 1 0.0597218 0.253663 0.314528
583 1 0.186377 0.25151 0.315858
587 1 0.311487 0.24631 0.311579
591 1 0.433335 0.248861 0.31382
595 1 0.562106 0.251937 0.311943
599 1 0.690472 0.249634 0.312172
603 1 0.812805 0.249673 0.31063
607 1 0.938777 0.244822 0.313035
580 1 -0.00320325 0.313812 0.314957
584 1 0.122883 0.311911 0.313495
588 1 0.249282 0.306607 0.313204
592 1 0.372537 0.309095 0.315362
596 1 0.498341 0.313894 0.316255
600 1 0.628425 0.311456 0.309045
604 1 0.751231 0.315325 0.316639
608 1 0.8761 0.309868 0.313023
611 1 0.0589767 0.373353 0.31243
615 1 0.185245 0.375788 0.312565
619 1 0.312292 0.373745 0.308542
623 1 0.436604 0.373497 0.317804
627 1 0.56062 0.372719 0.315032
631 1 0.691902 0.378154 0.310418
635 1 0.810685 0.374686 0.314997
639 1 0.938305 0.370867 0.313019
616 1 0.120071 0.436151 0.311974
620 1 0.245481 0.438702 0.316522
624 1 0.374843 0.442114 0.313908
628 1 0.502554 0.436839 0.313471
632 1 0.621649 0.43834 0.309428
636 1 0.752957 0.437214 0.311143
640 1 0.87341 0.43528 0.314324
612 1 0.995547 0.435372 0.310968
643 1 0.0614055 0.496568 0.310341
647 1 0.188546 0.500722 0.315712
651 1 0.310658 0.503361 0.305801
655 1 0.439451 0.500564 0.313844
659 1 0.564056 0.50565 0.30259
663 1 0.69265 0.502327 0.313532
667 1 0.809661 0.499554 0.311049
671 1 0.934902 0.498372 0.312618
648 1 0.124724 0.561092 0.311518
652 1 0.251349 0.564761 0.309853
656 1 0.377056 0.564648 0.312406
660 1 0.500304 0.563013 0.31637
664 1 0.63088 0.557753 0.31167
668 1 0.750542 0.564559 0.315536
672 1 0.875308 0.563296 0.314878
644 1 0.998053 0.558343 0.311676
675 1 0.0625655 0.626017 0.310725
679 1 0.185517 0.623657 0.312788
683 1 0.315027 0.626482 0.312457
687 1 0.438561 0.625637 0.315837
691 1 0.559851 0.622138 0.314719
695 1 0.690399 0.625367 0.316718
699 1 0.815851 0.625132 0.315936
703 1 0.934642 0.623678 0.312202
676 1 0.00234097 0.687538 0.31135
680 1 0.12252 0.68499 0.315377
684 1 0.25368 0.688336 0.310557
688 1 0.375704 0.687702 0.314574
692 1 0.502176 0.690604 0.313782
696 1 0.622993 0.683368 0.317862
700 1 0.753391 0.684313 0.313604
704 1 0.874319 0.687474 0.309847
707 1 0.0637529 0.749439 0.314505
711 1 0.183858 0.753618 0.31305
715 1 0.313249 0.753775 0.312842
719 1 0.436309 0.75052 0.314442
723 1 0.563421 0.748837 0.318262
727 1 0.687105 0.748203 0.311802
731 1 0.811405 0.750309 0.31186
735 1 0.941342 0.749851 0.311719
708 1 0.998166 0.814288 0.314564
712 1 0.125014 0.813003 0.313789
716 1 0.245287 0.810797 0.314145
720 1 0.371239 0.816784 0.310549
724 1 0.502512 0.810248 0.314199
728 1 0.626124 0.812425 0.313617
732 1 0.749328 0.809615 0.310557
736 1 0.879499 0.813238 0.310992
739 1 0.0622964 0.879877 0.311716
743 1 0.187696 0.874898 0.311492
747 1 0.30697 0.875327 0.312397
751 1 0.436538 0.87687 0.311938
755 1 0.56326 0.877122 0.311558
759 1 0.686174 0.876512 0.311108
763 1 0.814687 0.874172 0.30987
767 1 0.936212 0.873561 0.311496
744 1 0.122983 0.941558 0.311355
748 1 0.248874 0.939711 0.311659
752 1 0.373312 0.939481 0.312799
756 1 0.500128 0.9351 0.312003
760 1 0.623809 0.937253 0.314837
768 1 0.875627 0.935973 0.308815
740 1 0.996813 0.939165 0.315021
523 1 0.312939 -0.00036112 0.313789
527 1 0.438584 1.00069 0.312358
764 1 0.754531 0.939334 0.311622
781 1 0.377248 0.00147376 0.374527
785 1 0.497101 1.00097 0.372848
789 1 0.620312 -0.00392102 0.373881
793 1 0.750103 0.000969652 0.377083
797 1 0.869232 0.00238757 0.37656
769 1 0.000849306 1.0034 0.373184
770 1 0.0613593 0.0612991 0.377273
774 1 0.182832 0.0642453 0.378482
778 1 0.309951 0.0640714 0.377513
782 1 0.435362 0.0592715 0.375709
786 1 0.559423 0.0632965 0.374538
790 1 0.684158 0.0596167 0.377029
794 1 0.804215 0.0663001 0.372295
798 1 0.934979 0.0618515 0.377974
805 1 0.124576 0.124859 0.37723
809 1 0.245526 0.123095 0.378106
813 1 0.373075 0.119696 0.374528
817 1 0.500673 0.12651 0.375472
821 1 0.622417 0.123612 0.375138
825 1 0.747532 0.125897 0.374349
829 1 0.871033 0.127644 0.369464
801 1 0.000176179 0.123978 0.375319
802 1 0.0635765 0.18663 0.376487
806 1 0.186712 0.192515 0.381925
810 1 0.311417 0.182975 0.37765
814 1 0.43802 0.193253 0.374384
818 1 0.558227 0.19038 0.372281
822 1 0.68716 0.190157 0.374853
826 1 0.81 0.186292 0.370316
830 1 0.937334 0.185431 0.37046
833 1 0.998947 0.249984 0.377861
837 1 0.121996 0.253075 0.378625
841 1 0.249748 0.250067 0.377183
845 1 0.370273 0.250276 0.375109
849 1 0.503321 0.254036 0.376835
853 1 0.623111 0.250807 0.374255
857 1 0.750447 0.251829 0.37756
861 1 0.874606 0.244435 0.372783
834 1 0.0545816 0.312564 0.375014
838 1 0.182732 0.313451 0.374644
842 1 0.308895 0.309353 0.37624
846 1 0.437386 0.314009 0.377961
850 1 0.563431 0.311578 0.376136
854 1 0.6906 0.311245 0.373633
858 1 0.811475 0.308792 0.373882
862 1 0.938939 0.31232 0.379666
865 1 0.998583 0.375111 0.379589
869 1 0.120675 0.369778 0.375131
873 1 0.248023 0.372469 0.373842
877 1 0.372412 0.376454 0.37383
881 1 0.500157 0.375412 0.379154
885 1 0.626109 0.372485 0.373018
889 1 0.752648 0.373158 0.377258
893 1 0.874289 0.372267 0.372025
866 1 0.0626986 0.434749 0.375637
870 1 0.183793 0.434277 0.373713
874 1 0.316889 0.439466 0.37541
878 1 0.435413 0.436426 0.375667
882 1 0.565299 0.433235 0.377836
886 1 0.685576 0.436268 0.373715
890 1 0.809699 0.438101 0.375652
894 1 0.932248 0.436237 0.375181
901 1 0.128694 0.497858 0.375414
905 1 0.2546 0.50803 0.373454
909 1 0.374309 0.506312 0.375353
913 1 0.502506 0.497949 0.374459
917 1 0.624181 0.496787 0.378073
921 1 0.7547 0.50112 0.374784
925 1 0.873768 0.497819 0.376318
897 1 1.00209 0.496936 0.373674
898 1 0.0647139 0.559955 0.369564
902 1 0.187628 0.560636 0.375463
906 1 0.31177 0.565098 0.374155
910 1 0.436317 0.562041 0.374319
914 1 0.564289 0.558856 0.374822
918 1 0.689848 0.563186 0.375707
922 1 0.815589 0.562172 0.374187
926 1 0.938346 0.561299 0.373441
933 1 0.128212 0.623797 0.374273
937 1 0.247969 0.622836 0.37214
941 1 0.372354 0.622267 0.376111
945 1 0.500612 0.63112 0.374999
949 1 0.625291 0.621431 0.376313
953 1 0.749745 0.627265 0.380877
957 1 0.873636 0.628403 0.37796
929 1 -0.00133098 0.622765 0.369081
930 1 0.0612666 0.684996 0.375795
934 1 0.186558 0.696323 0.376622
938 1 0.313857 0.685491 0.373972
942 1 0.435136 0.692719 0.375169
946 1 0.567276 0.689057 0.381
950 1 0.686254 0.689001 0.378759
954 1 0.812908 0.689107 0.374956
958 1 0.940644 0.686838 0.372214
965 1 0.119051 0.754147 0.380457
969 1 0.249521 0.752155 0.372368
973 1 0.373784 0.748067 0.377188
977 1 0.501965 0.748613 0.377518
981 1 0.629557 0.754598 0.377889
985 1 0.753559 0.753098 0.372614
989 1 0.874106 0.750314 0.372772
961 1 0.997705 0.749258 0.379463
962 1 0.0641658 0.81926 0.376176
966 1 0.18653 0.813188 0.37705
970 1 0.314901 0.813646 0.377735
974 1 0.440736 0.817237 0.373478
978 1 0.563736 0.814279 0.375821
982 1 0.691728 0.812617 0.376487
986 1 0.815609 0.816926 0.373842
990 1 0.9366 0.812881 0.374591
993 1 0.00377942 0.872881 0.375146
997 1 0.122799 0.882185 0.37419
1001 1 0.247194 0.875817 0.379008
1005 1 0.378007 0.877115 0.375626
1009 1 0.500391 0.876628 0.371174
1017 1 0.753018 0.879518 0.371976
1021 1 0.874623 0.876526 0.370078
994 1 0.0618296 0.939575 0.375777
998 1 0.187241 0.9382 0.371259
1002 1 0.311961 0.939448 0.376927
1006 1 0.437392 0.938846 0.374305
1010 1 0.560962 0.939226 0.374749
1013 1 0.628876 0.875566 0.374968
1018 1 0.816405 0.936324 0.370545
1022 1 0.93484 0.941052 0.378048
773 1 0.123417 1.0002 0.374149
777 1 0.248064 0.00345708 0.376748
1014 1 0.689865 0.938674 0.376631
771 1 0.0631856 0.00254229 0.439812
787 1 0.561155 -0.000813278 0.435639
795 1 0.807789 0.000478133 0.437506
776 1 0.124724 0.0621056 0.437736
780 1 0.244791 0.0593411 0.442751
784 1 0.374845 0.0598057 0.441705
788 1 0.500832 0.0637088 0.439187
792 1 0.61955 0.0607086 0.4336
796 1 0.747062 0.0664242 0.434872
800 1 0.871398 0.060515 0.438353
772 1 0.000222562 0.0654749 0.436456
803 1 0.059153 0.124093 0.437164
807 1 0.185561 0.122327 0.440893
811 1 0.309224 0.121899 0.442222
815 1 0.433977 0.124221 0.432268
819 1 0.562339 0.124465 0.439166
823 1 0.685832 0.121865 0.434242
827 1 0.81048 0.121621 0.442585
831 1 0.93797 0.124551 0.43367
804 1 0.994625 0.188483 0.440044
808 1 0.124221 0.186769 0.438643
812 1 0.249821 0.182148 0.436312
816 1 0.371357 0.184835 0.437445
820 1 0.499987 0.191717 0.444262
824 1 0.62644 0.185951 0.43864
828 1 0.750454 0.185562 0.432387
832 1 0.87102 0.182497 0.435481
835 1 0.0635358 0.248472 0.437762
839 1 0.18346 0.254295 0.439912
843 1 0.312743 0.249083 0.434292
847 1 0.436136 0.251054 0.438521
851 1 0.563152 0.2478 0.441236
855 1 0.686219 0.251419 0.440994
859 1 0.812789 0.244647 0.435655
863 1 0.931513 0.242155 0.432476
836 1 -0.00149076 0.311756 0.440091
840 1 0.121383 0.312695 0.441638
844 1 0.249224 0.312283 0.437804
848 1 0.371687 0.311896 0.43419
852 1 0.498784 0.310506 0.438886
856 1 0.629399 0.312554 0.433981
860 1 0.746197 0.311254 0.438451
864 1 0.872638 0.310961 0.436309
867 1 0.0618921 0.374131 0.441595
871 1 0.185528 0.371409 0.438154
875 1 0.311169 0.37697 0.433872
879 1 0.43756 0.379708 0.438954
883 1 0.563248 0.370583 0.437294
887 1 0.689396 0.373382 0.435968
891 1 0.813908 0.372599 0.433634
895 1 0.9324 0.377821 0.438641
868 1 -0.0059987 0.434897 0.439815
872 1 0.125459 0.433896 0.43887
876 1 0.249381 0.436453 0.434984
880 1 0.372405 0.439055 0.439097
884 1 0.497909 0.437884 0.437964
888 1 0.620898 0.439341 0.441763
892 1 0.751911 0.436128 0.43451
896 1 0.873179 0.43798 0.439102
899 1 0.0619388 0.501705 0.433212
903 1 0.18701 0.496459 0.441646
907 1 0.311033 0.504594 0.43475
911 1 0.434983 0.496251 0.437403
915 1 0.563725 0.504371 0.43596
919 1 0.692214 0.498463 0.439423
923 1 0.813823 0.50101 0.436839
927 1 0.937914 0.499248 0.432873