ITEM: TIMESTEP
100000
ITEM: NUMBER OF ATOMS
2048
ITEM: BOX BOUNDS pp pp pp
0.0000000000000000e+00 1.2302095357258066e+01
0.0000000000000000e+00 1.2302095357258066e+01
0.0000000000000000e+00 1.2302095357258066e+01
ITEM: ATOMS id type xs ys zs
1111 1 0.0348597 0.0247668 0.0277777
764 1 0.125781 0.0308699 0.0359686
1622 1 0.213935 0.0155471 0.0128249
329 1 0.398615 0.0466125 0.00679029
540 1 0.473414 0.0111892 0.00419488
508 1 0.589627 0.039801 0.00676476
1877 1 0.776221 0.00483505 0.0105953
939 1 0.876937 0.0177621 0.0125822
42 1 0.94991 0.0537773 0.0213814
1531 1 0.0731755 0.0978783 0.0187762
424 1 0.175719 0.0961888 0.0412739
1331 1 0.46706 0.0980975 0.0311777
475 1 0.677719 0.0826783 0.0363763
1447 1 0.816834 0.0726288 0.0161683
1461 1 0.892187 0.109407 0.0114233
1079 1 0.130669 0.16144 0.0404748
927 1 0.25413 0.11503 0.0391385
619 1 0.520352 0.152392 0.0112536
1116 1 0.593595 0.118275 0.0212297
413 1 0.662475 0.159424 0.0319566
1987 1 0.00298386 0.186642 0.0453783
570 1 0.20067 0.20139 0.0383079
652 1 0.345482 0.182413 0.0496293
142 1 0.421138 0.19394 0.0193092
1915 1 0.56243 0.219775 0.0424894
1638 1 0.742032 0.17144 0.00199978
1529 1 0.813964 0.171935 0.0471322
484 1 0.914205 0.176344 0.0540522
1244 1 0.000367263 0.269616 0.0190264
1102 1 0.0649342 0.225313 0.0210014
455 1 0.134989 0.244533 0.0536084
100 1 0.194133 0.273612 0.00952579
757 1 0.375637 0.272311 0.0472804
1692 1 0.658136 0.260544 0.00364694
1606 1 0.796524 0.255443 0.0319804
972 1 0.229787 0.330495 0.0533495
1708 1 0.30128 0.300893 0.0245515
363 1 0.534216 0.316888 0.027162
1010 1 0.609628 0.328249 0.0037666
746 1 0.693 0.330785 0.00798311
611 1 0.102807 0.374248 0.0343408
892 1 0.356327 0.348419 0.0472652
1859 1 0.432503 0.338252 0.0162506
1786 1 0.863176 0.378943 0.0367826
569 1 0.920549 0.333935 0.0026942
1199 1 0.192244 0.436603 0.0388493
73 1 0.322627 0.426502 0.0231408
1372 1 0.467572 0.425824 0.0418281
1274 1 0.680503 0.412413 0.0463223
1996 1 0.744389 0.402041 0.000576725
1383 1 0.956998 0.403866 0.00555654
1050 1 0.0342409 0.447444 0.00481948
1054 1 0.112812 0.449608 0.0522506
1254 1 0.269715 0.49777 0.0478589
1252 1 0.416754 0.481204 0.00608238
1560 1 0.561113 0.448722 0.0392859
1453 1 0.635168 0.486368 0.00679002
924 1 0.710275 0.47688 0.0157404
1970 1 0.802904 0.452969 0.032241
263 1 0.945707 0.487373 0.00530577
2036 1 0.0232324 0.525135 0.0147192
439 1 0.341375 0.530071 0.029584
227 1 0.554836 0.535281 0.036673
622 1 0.719134 0.555297 0.0358481
1227 1 0.862715 0.517321 0.015243
1722 1 0.174233 0.563549 0.0410183
308 1 0.380832 0.60296 0.0247291
921 1 0.454834 0.555682 0.0163693
578 1 0.542641 0.611109 0.00862763
1682 1 0.618753 0.583947 0.0110778
1270 1 0.794632 0.592275 0.0398525
1720 1 0.87932 0.595792 0.0128741
752 1 0.956267 0.570863 0.0139504
1257 1 0.16262 0.644025 0.0252638
721 1 0.247558 0.634098 0.0147938
256 1 0.614543 0.664597 0.0191214
1671 1 0.679259 0.643552 0.0499234
1582 1 0.749848 0.663184 0.0148698
1280 1 0.231399 0.709695 0.0270583
2043 1 0.364868 0.68295 0.0430273
858 1 0.512898 0.680401 0.0276435
1959 1 0.82286 0.71888 0.0387677
1144 1 0.895653 0.704971 0.0255489
101 1 0.974533 0.669326 0.0425926
10 1 0.154962 0.724355 0.0147553
1889 1 0.310873 0.755766 0.0141159
770 1 0.448262 0.728807 0.0352249
31 1 0.62459 0.754474 0.0186108
1405 1 0.706854 0.728991 0.0175689
1464 1 0.992994 0.763056 0.0388475
304 1 0.096426 0.821554 0.0418185
1507 1 0.234757 0.794823 0.0338521
510 1 0.372025 0.813723 0.0186928
997 1 0.505261 0.779392 0.00989747
301 1 0.578562 0.816181 0.0152316
1316 1 0.656101 0.825772 0.037646
1839 1 0.831654 0.814052 0.0541992
2009 1 0.916269 0.808728 0.0236026
546 1 0.232132 0.883036 0.0530145
1712 1 0.283177 0.849967 0.00652309
1329 1 0.784569 0.877214 0.0512729
1286 1 0.951585 0.87901 0.038866
1939 1 0.0601958 0.898959 0.0331001
983 1 0.13476 0.889159 0.00360022
458 1 0.187183 0.941587 0.0404044
1591 1 0.319385 0.915875 0.01782
1993 1 0.398182 0.895949 0.0141786
1169 1 0.484239 0.923732 0.0421704
121 1 0.561095 0.889201 0.0315444
1772 1 0.634303 0.896734 0.0474589
520 1 0.70641 0.942984 0.0249086
327 1 0.825246 0.937564 0.0248742
745 1 0.00173926 0.954379 0.0396201
1038 1 0.351942 0.981308 0.0472336
1589 1 0.5437 0.968368 0.0138219
251 1 0.921471 0.952867 0.02819
1738 1 0.0227179 0.0146485 0.101943
1830 1 0.276226 0.0390922 0.0668664
1307 1 0.396047 0.0494236 0.108063
266 1 0.531946 0.0368034 0.0724471
1378 1 0.746959 0.0384417 0.0786501
1390 1 0.822569 0.0142501 0.0739468
1100 1 0.94415 0.0139754 0.0869243
902 1 0.00990831 0.0842905 0.0719915
451 1 0.125181 0.108824 0.104646
1309 1 0.201838 0.0697685 0.109953
557 1 0.341413 0.0987286 0.0629762
1663 1 0.474307 0.075976 0.107554
672 1 0.602438 0.0650809 0.083368
149 1 0.0569833 0.146361 0.0885958
425 1 0.196336 0.148281 0.0947905
1804 1 0.415815 0.124645 0.088124
888 1 0.531788 0.11714 0.0795992
1057 1 0.604003 0.143219 0.104492
978 1 0.737805 0.125219 0.070307
1490 1 0.86517 0.112243 0.0834792
919 1 0.268838 0.184481 0.0783725
1141 1 0.492321 0.19573 0.0751932
809 1 0.715504 0.206381 0.0737528
1377 1 0.0596005 0.234358 0.0947666
1723 1 0.251984 0.257605 0.062665
267 1 0.330561 0.233823 0.103264
1221 1 0.456439 0.269403 0.0620273
1276 1 0.615225 0.275536 0.0691793
1747 1 0.868433 0.243895 0.05837
1379 1 0.977166 0.232012 0.104593
773 1 0.0595776 0.304955 0.0663031
319 1 0.154212 0.319397 0.0803206
1011 1 0.319202 0.312773 0.108075
1000 1 0.720774 0.28207 0.0641331
485 1 0.815825 0.321606 0.0814703
152 1 0.902575 0.307813 0.0804357
1260 1 0.493604 0.356381 0.0877172
525 1 0.578602 0.377938 0.0696571
1210 1 0.649687 0.34462 0.0730754
911 1 0.744255 0.364381 0.0802874
453 1 0.981307 0.343164 0.0855741
1385 1 0.04011 0.404843 0.0701284
89 1 0.262258 0.398906 0.0764379
1789 1 0.409255 0.391818 0.086828
490 1 0.81802 0.403872 0.0976702
302 1 0.9253 0.39346 0.0882517
253 1 0.202678 0.491342 0.0908546
869 1 0.365163 0.463575 0.0744565
1997 1 0.621878 0.452671 0.0914941
1224 1 0.730289 0.44925 0.0960276
1341 1 0.885928 0.458286 0.0775725
1168 1 0.976036 0.463525 0.0703973
986 1 0.0459744 0.508988 0.0872334
1287 1 0.12472 0.519334 0.0903541
1796 1 0.323065 0.538215 0.108508
1511 1 0.408749 0.533008 0.0844936
1687 1 0.488903 0.507867 0.0704324
1088 1 0.641504 0.530543 0.0683894
1394 1 0.794697 0.515926 0.0784714
1784 1 0.859924 0.553743 0.0878354
817 1 0.938532 0.528059 0.0899581
1384 1 0.0815153 0.585292 0.0641928
349 1 0.251282 0.579018 0.0836971
704 1 0.504216 0.582574 0.0763831
1990 1 0.929741 0.610557 0.0785504
1542 1 0.0119347 0.616291 0.0905542
1551 1 0.216754 0.646699 0.0888655
77 1 0.314466 0.611812 0.0655565
866 1 0.434794 0.652934 0.0587312
909 1 0.621188 0.612902 0.0932507
687 1 0.854143 0.644762 0.0726027
1676 1 0.0525109 0.676146 0.0644907
941 1 0.126852 0.693766 0.0791394
1879 1 0.19886 0.721233 0.104927
2029 1 0.288523 0.690636 0.0767031
2000 1 0.591749 0.704271 0.0895182
575 1 0.736406 0.66989 0.0946679
1518 1 0.0663461 0.750376 0.0637868
966 1 0.358954 0.750147 0.0864295
423 1 0.505598 0.752121 0.085546
946 1 0.655822 0.760463 0.0887145
125 1 0.924505 0.753669 0.0865066
1799 1 0.170498 0.817243 0.065596
65 1 0.306209 0.815333 0.105657
1696 1 0.438467 0.804404 0.0630861
1482 1 0.57663 0.790202 0.0901424
1800 1 0.749609 0.804517 0.0564385
1258 1 0.927017 0.83143 0.107307
1147 1 0.0155075 0.838125 0.0619862
1574 1 0.11641 0.883467 0.0906768
1166 1 0.351234 0.868554 0.06836
726 1 0.430134 0.884043 0.0853985
202 1 0.508715 0.842155 0.0708612
1810 1 0.70713 0.880682 0.0799161
1465 1 0.871896 0.880805 0.0728381
1828 1 0.553364 0.902444 0.106449
177 1 0.948444 0.936237 0.0983866
429 1 0.0875059 0.96369 0.0674663
1836 1 0.258575 0.960853 0.068269
796 1 0.434448 0.982608 0.0657039
224 1 0.500424 0.956864 0.110109
37 1 0.599566 0.961181 0.0733152
1995 1 0.671524 0.992706 0.068924
1395 1 0.7629 0.948996 0.0810394
654 1 0.874042 0.960314 0.0986973
644 1 0.102726 0.0382282 0.118938
811 1 0.292229 0.0408417 0.146523
1815 1 0.45076 0.00901566 0.147276
1376 1 0.637146 0.0136187 0.138205
468 1 0.879563 0.0471417 0.125911
1628 1 0.961016 0.00719636 0.164283
76 1 0.0370442 0.0802935 0.150029
1590 1 0.275421 0.110885 0.115642
725 1 0.546369 0.0691125 0.145014
735 1 0.695805 0.0762814 0.11668
315 1 0.805721 0.0813934 0.121943
695 1 0.944563 0.079253 0.145273
511 1 0.089422 0.135848 0.164432
433 1 0.342447 0.147257 0.124321
231 1 0.524535 0.145554 0.156247
112 1 0.783065 0.158233 0.123512
1412 1 0.96706 0.159727 0.119254
1673 1 0.0336275 0.187584 0.158128
1765 1 0.140267 0.19096 0.132401
697 1 0.213717 0.214021 0.145765
839 1 0.415393 0.211157 0.112281
191 1 0.482648 0.213276 0.156364
1233 1 0.595529 0.214664 0.133361
446 1 0.673263 0.169362 0.13329
1703 1 0.869861 0.188801 0.129307
2035 1 0.122021 0.26651 0.134989
542 1 0.273786 0.269275 0.16032
820 1 0.53783 0.267962 0.11141
314 1 0.683372 0.251924 0.129631
1952 1 0.764244 0.246059 0.122607
1296 1 0.845092 0.265891 0.141914
2008 1 0.197814 0.293102 0.141962
1550 1 0.402853 0.319971 0.11722
711 1 0.483963 0.303329 0.154278
554 1 0.627484 0.303789 0.146676
1241 1 0.706302 0.329249 0.149894
841 1 0.941745 0.286906 0.14599
1566 1 0.0660719 0.351806 0.137145
1641 1 0.259368 0.351785 0.146647
1041 1 0.553776 0.34196 0.139137
1137 1 0.795649 0.337731 0.166624
1662 1 0.888668 0.356179 0.145988
1034 1 0.0847862 0.441717 0.135895
1919 1 0.143379 0.391642 0.113855
1930 1 0.223649 0.428478 0.139504
173 1 0.336268 0.403231 0.118522
1431 1 0.496206 0.393791 0.155933
1770 1 0.541067 0.438603 0.112526
2038 1 0.604006 0.408083 0.164491
1128 1 0.677082 0.395432 0.127838
1734 1 0.86787 0.430509 0.15557
1853 1 0.986345 0.408878 0.145766
1470 1 0.154499 0.464584 0.147038
1039 1 0.289769 0.469459 0.11953
1596 1 0.395806 0.469586 0.164343
541 1 0.455016 0.453237 0.115684
1194 1 0.580254 0.485955 0.164741
1299 1 0.800498 0.464727 0.140261
692 1 0.948682 0.482757 0.160041
1175 1 0.180752 0.550124 0.139331
1954 1 0.265181 0.522996 0.162899
1333 1 0.4592 0.536754 0.139498
1940 1 0.563724 0.550011 0.117568
1090 1 0.654661 0.546379 0.143057
1149 1 0.731512 0.53629 0.125408
193 1 0.872654 0.511494 0.151954
41 1 0.0618167 0.567552 0.137692
1769 1 0.236333 0.602714 0.160131
1183 1 0.383952 0.565965 0.157836
44 1 0.695373 0.602202 0.112336
635 1 0.905053 0.587296 0.148352
548 1 0.981441 0.561988 0.147668
114 1 0.0670364 0.650797 0.135961
1576 1 0.133826 0.6196 0.11529
1097 1 0.296633 0.643223 0.139788
722 1 0.37344 0.651048 0.121508
884 1 0.44885 0.61725 0.146375
1200 1 0.553252 0.641156 0.123335
1387 1 0.785219 0.61571 0.127015
1493 1 0.854174 0.653144 0.155121
1485 1 0.969564 0.63635 0.156814
667 1 0.134303 0.700515 0.163423
1433 1 0.486557 0.683931 0.120191
993 1 0.658387 0.680206 0.116421
81 1 0.804605 0.706254 0.116012
1053 1 0.916986 0.676273 0.112672
233 1 0.991528 0.697916 0.11797
612 1 0.0479668 0.742635 0.145061
1289 1 0.124188 0.771222 0.113563
729 1 0.287615 0.735006 0.143229
1436 1 0.367057 0.727304 0.163344
536 1 0.432807 0.743137 0.124433
830 1 0.543406 0.739239 0.148837
1860 1 0.73131 0.756082 0.117664
154 1 0.851029 0.771252 0.12051
1186 1 0.0704436 0.832537 0.131109
1541 1 0.236027 0.792181 0.125569
358 1 0.386095 0.816287 0.116036
1649 1 0.465106 0.815868 0.139584
573 1 0.607598 0.784168 0.162326
1304 1 0.681944 0.814544 0.145334
1731 1 0.991531 0.788752 0.116344
335 1 0.191807 0.874113 0.121574
1360 1 0.33997 0.876991 0.149934
1343 1 0.545536 0.834537 0.145911
863 1 0.615519 0.85676 0.11656
1532 1 0.774125 0.834274 0.129656
907 1 0.995843 0.859109 0.157696
51 1 0.0436326 0.913197 0.122443
12 1 0.273425 0.900762 0.118697
469 1 0.396676 0.932729 0.145091
139 1 0.478649 0.891463 0.148489
1554 1 0.642251 0.930691 0.13316
1845 1 0.73804 0.907332 0.146553
1064 1 0.815 0.910567 0.124009
1084 1 0.90231 0.892617 0.143904
733 1 0.112888 0.950898 0.146007
1472 1 0.179153 0.975622 0.112831
545 1 0.250269 0.971904 0.1445
788 1 0.330573 0.974396 0.124682
1977 1 0.570265 0.976487 0.143407
1402 1 0.703819 0.982824 0.143047
1416 1 0.79577 0.988088 0.143498
1557 1 0.164986 0.0426186 0.168497
277 1 0.370329 0.00960082 0.180171
631 1 0.562148 0.0305047 0.208398
1340 1 0.676831 0.0331077 0.204988
333 1 0.75716 0.0492168 0.191034
1867 1 0.105355 0.0696457 0.213699
1486 1 0.235539 0.0858763 0.17974
1048 1 0.338211 0.0925389 0.180905
338 1 0.427384 0.0782976 0.173957
1456 1 0.61798 0.0936209 0.16739
798 1 0.839652 0.0722008 0.192351
145 1 0.168412 0.13058 0.167376
108 1 0.420256 0.153487 0.167347
1947 1 0.610787 0.164211 0.188191
93 1 0.698005 0.112329 0.186652
1351 1 0.777226 0.124673 0.19375
1474 1 0.895474 0.134461 0.182461
74 1 0.966138 0.140048 0.220399
948 1 0.137446 0.185124 0.216708
808 1 0.289132 0.176694 0.171912
1086 1 0.362124 0.198994 0.191888
1487 1 0.547608 0.210611 0.199664
532 1 0.732347 0.197235 0.177655
1599 1 0.821533 0.190502 0.187059
1843 1 0.941145 0.214354 0.187755
1521 1 0.018377 0.265273 0.172877
641 1 0.186343 0.246366 0.211034
1962 1 0.424643 0.259148 0.174854
1013 1 0.639417 0.242748 0.19624
353 1 0.793221 0.269808 0.206642
853 1 0.237292 0.312864 0.21582
627 1 0.350344 0.285963 0.177143
294 1 0.559984 0.28796 0.193204
403 1 0.86692 0.318013 0.213245
2018 1 0.11887 0.385561 0.196006
616 1 0.192337 0.369347 0.181731
1701 1 0.41684 0.369044 0.179593
90 1 0.599046 0.351085 0.218084
1292 1 0.999819 0.343493 0.186461
1104 1 0.0306993 0.418797 0.208334
568 1 0.259386 0.394882 0.210873
980 1 0.350155 0.42705 0.202188
977 1 0.463569 0.417498 0.220696
1700 1 0.546211 0.420538 0.214084
639 1 0.678822 0.399398 0.215984
1430 1 0.751606 0.404062 0.174392
1716 1 0.822394 0.413752 0.217842
1294 1 0.0251592 0.497791 0.167958
1801 1 0.217839 0.474318 0.205124
847 1 0.330054 0.499921 0.191174
676 1 0.496705 0.476024 0.18135
1207 1 0.663215 0.464568 0.167648
899 1 0.742654 0.481468 0.191757
29 1 0.103731 0.501516 0.195299
1156 1 0.4487 0.527797 0.21746
27 1 0.523572 0.546065 0.196864
1613 1 0.60361 0.55468 0.207473
489 1 0.918052 0.548326 0.213507
515 1 0.103425 0.584467 0.205864
276 1 0.31503 0.594416 0.194586
1564 1 0.729505 0.56799 0.196855
2024 1 0.814324 0.557974 0.167853
370 1 0.0338339 0.637578 0.205666
806 1 0.173386 0.625819 0.194154
723 1 0.395593 0.632475 0.202731
1106 1 0.627467 0.621593 0.173314
1749 1 0.711679 0.644197 0.179183
131 1 0.792042 0.63042 0.206557
2014 1 0.912998 0.656488 0.206551
148 1 0.0687833 0.705439 0.208575
1262 1 0.218167 0.690483 0.175498
1342 1 0.316413 0.674741 0.218592
1071 1 0.440981 0.692759 0.183531
300 1 0.528697 0.676077 0.189774
362 1 0.606307 0.692834 0.187049
878 1 0.687928 0.715612 0.182894
1581 1 0.765109 0.704623 0.183024
905 1 0.990612 0.70409 0.194734
893 1 0.159258 0.745055 0.221143
601 1 0.237126 0.77151 0.201747
658 1 0.485345 0.767431 0.200291
1263 1 0.833823 0.74112 0.19894
109 1 0.914641 0.74154 0.173861
1892 1 0.00677469 0.789952 0.195932
1618 1 0.0941244 0.781214 0.206586
1389 1 0.16578 0.814068 0.18729
1231 1 0.325895 0.801908 0.184494
431 1 0.401369 0.782738 0.205088
1004 1 0.75266 0.785631 0.189956
1339 1 0.846156 0.82828 0.18255
586 1 0.928391 0.827045 0.187513
1520 1 0.125221 0.879642 0.180919
1571 1 0.262353 0.844191 0.177084
1174 1 0.420506 0.857461 0.185428
1949 1 0.496784 0.852928 0.207594
834 1 0.635898 0.848322 0.208729
1626 1 0.759822 0.862321 0.212249
1498 1 0.0510746 0.923453 0.201447
1345 1 0.202433 0.892398 0.195737
837 1 0.299379 0.912273 0.208831
527 1 0.384528 0.915819 0.220568
1754 1 0.573107 0.913638 0.185516
183 1 0.678264 0.913348 0.201033
935 1 0.826823 0.910755 0.210651
1991 1 0.916595 0.898698 0.218836
1757 1 0.976882 0.936252 0.18329
605 1 0.0405363 0.997723 0.183217
30 1 0.194366 0.972233 0.198909
850 1 0.433368 0.97964 0.221447
799 1 0.509086 0.963323 0.216337
259 1 0.621617 0.971986 0.200702
663 1 0.893674 0.967123 0.177633
189 1 0.146223 0.0148756 0.252136
8 1 0.235729 0.0155775 0.25131
416 1 0.374868 0.0518014 0.242159
1203 1 0.486943 0.0424489 0.225097
1300 1 0.602195 0.0345583 0.275001
334 1 0.855522 0.0126546 0.242105
1886 1 0.99298 0.0539178 0.227386
1760 1 0.177375 0.0919209 0.249908
1409 1 0.295127 0.0622837 0.251889
279 1 0.654714 0.0958675 0.248685
1543 1 0.738571 0.107737 0.264291
312 1 0.800196 0.0577943 0.266076
932 1 0.915938 0.0683354 0.241916
923 1 0.107364 0.130414 0.273781
374 1 0.22118 0.153979 0.226688
1279 1 0.300227 0.136652 0.23576
287 1 0.389148 0.134375 0.233232
441 1 0.473486 0.126688 0.237857
1752 1 0.840525 0.143344 0.259423
637 1 0.047889 0.178139 0.240634
566 1 0.320644 0.203836 0.27114
187 1 0.436742 0.201956 0.233165
1555 1 0.532712 0.17967 0.271925
1321 1 0.625979 0.208236 0.276318
1787 1 0.680951 0.175306 0.229318
46 1 0.761902 0.179627 0.247665
317 1 0.0256069 0.257817 0.263035
1032 1 0.11958 0.274062 0.249308
7 1 0.258102 0.226011 0.229046
1087 1 0.382142 0.25469 0.241828
1093 1 0.494573 0.252322 0.241571
1985 1 0.565067 0.262764 0.265136
582 1 0.883288 0.244396 0.228011
217 1 0.955653 0.222544 0.2736
1901 1 0.0668785 0.327722 0.225886
588 1 0.294679 0.285108 0.26463
1609 1 0.437042 0.31435 0.241273
477 1 0.636731 0.295473 0.27387
559 1 0.717641 0.286532 0.232297
1922 1 0.778991 0.327544 0.261483
636 1 0.950075 0.290447 0.224163
487 1 0.163649 0.349666 0.251741
486 1 0.362611 0.34335 0.228149
1347 1 0.508254 0.351414 0.232092
608 1 0.987289 0.348076 0.272665
62 1 0.322635 0.41015 0.276988
192 1 0.413398 0.392182 0.272996
816 1 0.617486 0.441581 0.236861
128 1 0.931417 0.40379 0.229286
709 1 0.0620838 0.474344 0.254113
116 1 0.144775 0.44887 0.244654
291 1 0.276246 0.477791 0.25499
1906 1 0.395931 0.471874 0.252157
247 1 0.488346 0.476599 0.257054
70 1 0.561556 0.496079 0.248241
179 1 0.744246 0.45288 0.261618
220 1 0.877941 0.481315 0.225589
1803 1 0.9572 0.479486 0.243284
1888 1 0.0234463 0.550115 0.224491
1107 1 0.17153 0.539913 0.223283
894 1 0.251509 0.552154 0.236424
813 1 0.359407 0.546704 0.243154
1306 1 0.671393 0.524823 0.222802
761 1 0.804165 0.508971 0.236246
1265 1 0.870062 0.543609 0.276317
470 1 0.152853 0.598679 0.272128
832 1 0.427594 0.5884 0.268159
38 1 0.533578 0.568144 0.271433
448 1 0.660811 0.600103 0.245575
1297 1 0.860368 0.609524 0.238347
502 1 0.963299 0.609521 0.238067
115 1 0.0645345 0.656775 0.275895
474 1 0.247776 0.631867 0.23058
345 1 0.488758 0.61211 0.228068
1753 1 0.572189 0.627285 0.233444
248 1 0.742076 0.662783 0.255752
524 1 0.0218695 0.717289 0.269489
680 1 0.134846 0.672559 0.24339
547 1 0.23199 0.714245 0.249411
1432 1 0.380807 0.718679 0.239728
1215 1 0.475893 0.718214 0.263366
28 1 0.657561 0.676615 0.247272
702 1 0.85458 0.681163 0.254127
215 1 0.924295 0.711118 0.273473
1197 1 0.0953575 0.735195 0.277353
1875 1 0.296329 0.764606 0.245693
1846 1 0.551112 0.725013 0.249074
584 1 0.633227 0.748451 0.243508
47 1 0.77198 0.735526 0.255906
750 1 0.142441 0.798059 0.274692
931 1 0.354619 0.822977 0.255759
865 1 0.448536 0.808986 0.264892
1509 1 0.565507 0.805819 0.224412
1326 1 0.695405 0.802505 0.251405
1365 1 0.779766 0.809941 0.26613
936 1 0.882191 0.788557 0.242699
1138 1 0.962094 0.784234 0.27196
373 1 0.0634273 0.856753 0.232776
1525 1 0.133207 0.875316 0.267051
1303 1 0.275205 0.855301 0.253964
1916 1 0.44469 0.883225 0.267598
563 1 0.541473 0.888625 0.264285
887 1 0.705025 0.885845 0.26906
1171 1 0.849458 0.863169 0.267618
1238 1 0.987738 0.857383 0.243558
2001 1 0.129211 0.940632 0.226062
840 1 0.254659 0.942262 0.268984
572 1 0.623916 0.90472 0.261911
1951 1 0.0743084 0.988481 0.254289
232 1 0.308498 0.988203 0.224
311 1 0.567674 0.966899 0.257739
156 1 0.666024 0.977303 0.267139
1110 1 0.740352 0.947017 0.230078
873 1 0.939453 0.980038 0.242688
1514 1 0.43166 0.0314752 0.284961
342 1 0.520079 0.0270004 0.299611
1230 1 0.726684 0.0319512 0.280621
523 1 0.901744 0.00731641 0.312679
452 1 0.988919 0.0231158 0.314665
1442 1 0.0542221 0.060267 0.286337
944 1 0.128634 0.0670848 0.319552
442 1 0.237973 0.0737851 0.303871
805 1 0.426399 0.109145 0.297237
552 1 0.523686 0.102818 0.297377
1448 1 0.634573 0.0893511 0.326281
589 1 0.867849 0.0792642 0.300602
297 1 0.265674 0.150921 0.316648
1284 1 0.346729 0.116105 0.300997
1621 1 0.480387 0.158028 0.332153
890 1 0.593155 0.133285 0.280272
1019 1 0.689361 0.141567 0.311435
591 1 0.792177 0.121418 0.319183
209 1 0.91704 0.155942 0.280528
1653 1 0.979626 0.115448 0.30133
1445 1 0.0183001 0.195741 0.313723
1181 1 0.0927476 0.212618 0.294993
2012 1 0.173475 0.209785 0.282422
854 1 0.391722 0.185766 0.297347
299 1 0.758879 0.196992 0.332492
1002 1 0.836215 0.201773 0.30981
974 1 0.144348 0.264247 0.328743
226 1 0.255374 0.228072 0.307594
364 1 0.338421 0.26036 0.32636
1246 1 0.433124 0.251141 0.296319
1400 1 0.702678 0.226959 0.284073
675 1 0.787041 0.256673 0.292498
1806 1 0.895249 0.269256 0.305333
84 1 0.0956912 0.32117 0.313771
1318 1 0.202792 0.281829 0.278567
870 1 0.39761 0.318308 0.306655
1713 1 0.495439 0.321813 0.304056
257 1 0.575659 0.330567 0.313837
1037 1 0.979784 0.29007 0.322868
1491 1 0.177758 0.356659 0.331123
4 1 0.253584 0.351661 0.282844
1042 1 0.326911 0.339033 0.321151
1968 1 0.63412 0.375685 0.279078
1779 1 0.710737 0.378526 0.290251
103 1 0.798969 0.38303 0.310673
1160 1 0.872003 0.385955 0.292191
1741 1 0.0186406 0.420633 0.291122
562 1 0.102422 0.397803 0.285367
405 1 0.208771 0.430701 0.293697
1489 1 0.492209 0.401824 0.295425
130 1 0.573152 0.440364 0.308627
1045 1 0.946942 0.399588 0.31539
728 1 0.424308 0.473166 0.326532
740 1 0.669153 0.452592 0.302036
613 1 0.825336 0.452363 0.290283
1739 1 0.908639 0.473293 0.30221
1522 1 0.00723348 0.509259 0.292931
1475 1 0.126217 0.530223 0.291672
155 1 0.20663 0.510481 0.282876
55 1 0.298009 0.550284 0.302844
1438 1 0.385019 0.53747 0.318184
504 1 0.55705 0.513648 0.324349
240 1 0.637881 0.525954 0.310095
981 1 0.714635 0.535923 0.2892
965 1 0.935088 0.546853 0.315129
1251 1 0.0567639 0.577174 0.288845
574 1 0.227898 0.580144 0.313122
807 1 0.60209 0.597645 0.301741
677 1 0.786054 0.594888 0.280784
1619 1 0.130488 0.656358 0.318535
351 1 0.205329 0.654147 0.297872
1398 1 0.290612 0.659065 0.296758
1332 1 0.362524 0.627912 0.285623
1882 1 0.50781 0.650344 0.291511
1117 1 0.774124 0.658221 0.325535
926 1 0.843955 0.611665 0.329082
313 1 0.916935 0.635475 0.301147
1707 1 0.993436 0.627942 0.31585
316 1 0.257736 0.722142 0.330019
264 1 0.409057 0.688791 0.308848
48 1 0.599003 0.676001 0.315052
1652 1 0.176518 0.727832 0.298605
290 1 0.340057 0.723474 0.310497
39 1 0.40407 0.770477 0.314923
518 1 0.584828 0.763914 0.302483
1704 1 0.679434 0.730076 0.303018
1109 1 0.839386 0.747303 0.295124
827 1 0.0342171 0.806398 0.286244
1142 1 0.224672 0.800981 0.289697
580 1 0.311934 0.808605 0.327817
579 1 0.52714 0.81447 0.292962
882 1 0.631467 0.82639 0.301794
1415 1 0.907252 0.782239 0.325401
1736 1 0.0152691 0.881009 0.327176
1974 1 0.0905033 0.845976 0.332309
1931 1 0.199217 0.871608 0.310095
1721 1 0.390471 0.852807 0.320056
269 1 0.928042 0.863733 0.294337
1463 1 0.0826436 0.933831 0.31238
1807 1 0.335336 0.898474 0.281552
282 1 0.781098 0.891871 0.289559
244 1 0.866578 0.942477 0.280509
826 1 0.944879 0.940671 0.328076
1666 1 0.01173 0.947439 0.279676
1302 1 0.165283 0.94569 0.294323
1337 1 0.222956 0.997341 0.324905
1427 1 0.316197 0.975702 0.30164
1776 1 0.390578 0.958863 0.291054
169 1 0.471394 0.951485 0.29496
1872 1 0.616073 0.954257 0.331439
59 1 0.712021 0.947864 0.320539
581 1 0.790843 0.978963 0.280865
513 1 0.063023 0.0254827 0.381122
793 1 0.309503 0.0499276 0.334985
465 1 0.579713 0.0220289 0.361774
275 1 0.669736 0.0208006 0.335035
604 1 0.79478 0.0309185 0.342632
1154 1 0.191002 0.0972993 0.37177
1074 1 0.384715 0.0583149 0.34028
1008 1 0.333708 0.103131 0.386065
1508 1 0.472872 0.0770016 0.34741
1934 1 0.559142 0.105444 0.366651
1989 1 0.718945 0.0794449 0.345663
96 1 0.929506 0.0723707 0.349831
444 1 0.0622205 0.123957 0.338866
242 1 0.142713 0.152417 0.336086
2016 1 0.411615 0.116807 0.383178
284 1 0.625679 0.164498 0.369161
742 1 0.858277 0.12927 0.360697
1099 1 0.944935 0.156878 0.380674
708 1 0.0904334 0.195807 0.387053
1697 1 0.195929 0.212695 0.359166
1584 1 0.329568 0.174384 0.35667
1113 1 0.703638 0.173282 0.384693
930 1 0.888735 0.212696 0.369694
1153 1 0.0540744 0.260562 0.353166
1580 1 0.277939 0.230023 0.385626
530 1 0.389402 0.227194 0.379106
1780 1 0.512844 0.23771 0.3346
1823 1 0.581965 0.23247 0.372717
1370 1 0.658036 0.238708 0.351462
1513 1 0.793574 0.255283 0.379495
375 1 0.96725 0.23922 0.377427
479 1 0.221948 0.28756 0.355761
564 1 0.308384 0.304839 0.384731
321 1 0.448114 0.281367 0.369365
1938 1 0.529496 0.300062 0.375856
1856 1 0.747935 0.322435 0.345474
696 1 0.844478 0.320051 0.336392
376 1 0.0356467 0.379529 0.35865
507 1 0.248355 0.364078 0.371645
1268 1 0.454805 0.361802 0.380378
1855 1 0.534825 0.385155 0.359855
903 1 0.660329 0.338243 0.338058
1547 1 0.715047 0.388735 0.372021
274 1 0.919589 0.336426 0.350208
819 1 0.113432 0.396733 0.362454
1189 1 0.310617 0.42787 0.376789
1481 1 0.381918 0.398374 0.351557
1029 1 0.624667 0.400505 0.365015
758 1 0.876084 0.415816 0.37415
1213 1 0.0683168 0.457702 0.345633
11 1 0.15142 0.465933 0.348719
1133 1 0.259328 0.481468 0.333771
1358 1 0.503688 0.458762 0.341969
818 1 0.61992 0.492993 0.374775
283 1 0.755816 0.455713 0.339465
1184 1 0.835755 0.483658 0.356801
1857 1 0.988155 0.45229 0.359368
1373 1 0.0237599 0.545683 0.362156
1167 1 0.0998001 0.525008 0.369816
398 1 0.203847 0.527951 0.3763
1735 1 0.305893 0.528778 0.385458
414 1 0.4884 0.546528 0.338193
1604 1 0.701344 0.509458 0.381349
199 1 0.767352 0.532414 0.34285
440 1 0.869647 0.548008 0.372154
83 1 0.0670495 0.610588 0.360823
1758 1 0.141866 0.585024 0.347716
1929 1 0.326385 0.604024 0.350279
543 1 0.567138 0.574442 0.369536
1913 1 0.652106 0.597016 0.363758
995 1 0.723865 0.601044 0.337442
1007 1 0.194681 0.634905 0.379053
685 1 0.441106 0.61379 0.344339
623 1 0.520914 0.638733 0.376702
535 1 0.674261 0.666133 0.347
2020 1 0.906071 0.626109 0.3806
1458 1 0.0520368 0.687895 0.360212
133 1 0.128477 0.721609 0.369858
1419 1 0.279986 0.666905 0.373322
957 1 0.356626 0.677523 0.371918
1092 1 0.43586 0.678782 0.383127
88 1 0.551231 0.713195 0.365258
1870 1 0.87207 0.687289 0.333959
420 1 0.969961 0.711504 0.336833
1565 1 0.0544438 0.764346 0.350548
843 1 0.483482 0.723723 0.337416
610 1 0.74821 0.72965 0.359616
2027 1 0.831859 0.744133 0.374028
797 1 0.152868 0.79565 0.350542
1191 1 0.238926 0.794745 0.384079
1665 1 0.464719 0.816164 0.340363
940 1 0.547107 0.793815 0.366995
958 1 0.638411 0.78585 0.367336
265 1 0.737628 0.817112 0.333801
638 1 0.818679 0.825697 0.335003
987 1 0.881898 0.833017 0.387031
1537 1 0.982906 0.793246 0.347883
99 1 0.574057 0.872411 0.360413
1904 1 0.681394 0.867451 0.355177
447 1 0.152351 0.900363 0.369312
1607 1 0.227669 0.927177 0.360439
749 1 0.307629 0.904926 0.354933
748 1 0.416452 0.919105 0.356929
1778 1 0.497051 0.889812 0.339657
1719 1 0.777523 0.939314 0.356226
1308 1 0.852724 0.896519 0.345598
34 1 0.0185441 0.963547 0.355611
961 1 0.123275 0.981061 0.354419
211 1 0.284963 0.976394 0.380822
1115 1 0.364533 0.987 0.37044
1291 1 0.449057 0.993853 0.356379
1418 1 0.536991 0.953256 0.339864
1808 1 0.850342 0.978852 0.364825
1694 1 0.93389 0.99779 0.384564
791 1 0.167824 0.0143574 0.413618
466 1 0.325601 0.0238589 0.43206
1123 1 0.421168 0.0453337 0.407958
1165 1 0.514544 0.0494381 0.429897
1918 1 0.730083 0.0200784 0.398824
126 1 0.798951 0.0103774 0.428681
324 1 0.859828 0.0528173 0.403077
991 1 0.0450941 0.0960242 0.440723
822 1 0.256107 0.0578344 0.396073
1740 1 0.6324 0.0652876 0.40163
1782 1 0.706264 0.0959106 0.428564
25 1 0.783007 0.0900292 0.394292
1644 1 0.901378 0.105024 0.438604
1624 1 0.990819 0.0561929 0.405544
1568 1 0.111991 0.121026 0.401497
989 1 0.175891 0.162792 0.412903
1239 1 0.254132 0.153323 0.395566
1420 1 0.482308 0.122386 0.43513
632 1 0.0184193 0.16793 0.392073
1488 1 0.337597 0.190621 0.427566
491 1 0.462063 0.213581 0.397863
1732 1 0.536675 0.184035 0.40714
1668 1 0.786107 0.167735 0.401926
947 1 0.0403868 0.27326 0.428174
1172 1 0.170245 0.251595 0.423473
2019 1 0.669255 0.234815 0.424951
730 1 0.742757 0.231846 0.442554
1266 1 0.107279 0.307867 0.393499
1293 1 0.249796 0.30272 0.441739
678 1 0.382527 0.311451 0.402436
707 1 0.458961 0.309441 0.441549
1311 1 0.608871 0.317597 0.391512
1024 1 0.692591 0.303584 0.400554
868 1 0.813 0.318902 0.435709
598 1 0.874268 0.282886 0.40089
255 1 0.983503 0.324243 0.408296
556 1 0.106767 0.374279 0.438731
1645 1 0.178571 0.337406 0.422372
659 1 0.39459 0.382064 0.430189
614 1 0.553402 0.346781 0.437449
2045 1 0.65233 0.36315 0.442271
1631 1 0.791692 0.377362 0.390619
365 1 0.887842 0.356106 0.430935
69 1 0.191787 0.414661 0.405411
1049 1 0.552172 0.443205 0.42595
194 1 0.705692 0.442777 0.427998
917 1 0.951565 0.394749 0.399843
1094 1 0.110344 0.449605 0.417078
1414 1 0.173988 0.486938 0.435772
1677 1 0.247675 0.46846 0.409725
463 1 0.36719 0.482398 0.394097
22 1 0.448706 0.446845 0.3982
1964 1 0.765455 0.493728 0.416161
1583 1 0.85183 0.466793 0.436014
655 1 0.922547 0.476369 0.400563
1572 1 0.0524046 0.508664 0.443941
1540 1 0.432229 0.523622 0.411535
1791 1 0.525245 0.521878 0.405044
1681 1 0.626813 0.548574 0.440438
719 1 0.821276 0.542709 0.444343
54 1 0.0982542 0.580203 0.425459
544 1 0.175099 0.57369 0.440075
43 1 0.250214 0.58496 0.403787
1176 1 0.378402 0.578846 0.404802
1388 1 0.453925 0.595534 0.418645
1601 1 0.701804 0.598574 0.436072
56 1 0.779355 0.590452 0.395392
778 1 0.938673 0.556142 0.409202
1187 1 0.119181 0.651038 0.40267
626 1 0.317756 0.611262 0.436976
1101 1 0.389265 0.654012 0.439113
124 1 0.60392 0.654795 0.392166
699 1 0.736966 0.656625 0.392114
2013 1 0.824969 0.660573 0.393696
400 1 0.994264 0.615691 0.391743
1132 1 0.061457 0.690703 0.441081
587 1 0.211969 0.712105 0.392987
860 1 0.505092 0.72205 0.430824
388 1 0.67064 0.690798 0.420283
298 1 0.885666 0.693945 0.430237
800 1 0.964656 0.672912 0.431108
1027 1 0.00751136 0.740047 0.408198
1840 1 0.083775 0.761038 0.426449
1075 1 0.315434 0.754689 0.399763
1454 1 0.39483 0.734489 0.424605
75 1 0.597642 0.744421 0.422928
450 1 0.930435 0.7563 0.39976
1999 1 0.025665 0.830333 0.400682
1353 1 0.16694 0.781285 0.428728
1330 1 0.37726 0.801746 0.391113