ITEM: TIMESTEP
100000
ITEM: NUMBER OF ATOMS
2048
ITEM: BOX BOUNDS pp pp pp
0.0000000000000000e+00 1.1351867295763070e+01
0.0000000000000000e+00 1.1351867295763070e+01
0.0000000000000000e+00 1.1351867295763070e+01
ITEM: ATOMS id type xs ys zs
1 1 0.000914844 0.00674896 0.00160107
16 1 0.375843 0.0573364 0.0578241
14 1 0.441659 0.05851 6.81829e-05
25 1 0.745452 0.000301884 9.75994e-05
29 1 0.872655 6.86471e-05 0.00256716
2 1 0.0627837 0.0640353 0.00388297
10 1 0.313739 0.0704148 0.00298166
24 1 0.619936 0.0610767 0.0585712
22 1 0.687956 0.0615784 0.00114833
26 1 0.812429 0.0666981 0.00298797
30 1 0.931102 0.0624627 0.0021714
45 1 0.371227 0.125719 0.00521026
53 1 0.626855 0.125068 0.0032384
57 1 0.744497 0.128974 0.00411777
61 1 0.875757 0.128091 0.00162103
38 1 0.180699 0.185993 0.00126625
42 1 0.313676 0.1822 0.00646462
50 1 0.560371 0.185631 0.0034534
54 1 0.688099 0.192424 0.00211169
58 1 0.814903 0.194571 0.00202478
62 1 0.938393 0.186877 0.00467176
75 1 0.309479 0.248999 0.0558337
77 1 0.371804 0.249229 0.00574176
85 1 0.621696 0.260776 0.00112621
89 1 0.751924 0.249744 0.000977127
93 1 0.878326 0.251086 0.00278335
72 1 0.125674 0.310647 0.0567205
76 1 0.244744 0.303404 0.0583378
74 1 0.313436 0.31504 0.000931692
78 1 0.435346 0.31156 0.00341178
82 1 0.562156 0.316771 0.00238892
90 1 0.811463 0.311525 0.00668297
94 1 0.94357 0.312581 0.00476643
99 1 0.0638833 0.374789 0.0576765
103 1 0.188052 0.367514 0.057066
109 1 0.37373 0.374931 0.00345795
113 1 0.49822 0.379405 0.00370389
121 1 0.751514 0.374666 0.0043121
125 1 0.873862 0.377736 0.000156804
108 1 0.24484 0.434038 0.0570145
106 1 0.303695 0.433251 0.000794568
112 1 0.369699 0.438687 0.0552234
114 1 0.56301 0.433536 0.00361347
122 1 0.817001 0.437807 0.00323048
126 1 0.943148 0.438403 0.00208814
143 1 0.430671 0.494217 0.0582261
145 1 0.500359 0.494729 0.00347196
147 1 0.564783 0.50084 0.0584206
153 1 0.753253 0.502365 0.00123601
140 1 0.24996 0.564325 0.0575517
142 1 0.437129 0.559094 0.00120117
148 1 0.500254 0.561979 0.0560361
154 1 0.81619 0.558965 0.00390115
165 1 0.12788 0.625106 0.00381141
171 1 0.313504 0.623005 0.0578531
181 1 0.62388 0.623604 0.000680194
185 1 0.747972 0.624887 0.000364456
189 1 0.876893 0.623385 0.00369962
161 1 0.993642 0.629064 0.000882147
162 1 0.0589479 0.682082 0.00280661
166 1 0.19254 0.682171 0.000511328
170 1 0.312251 0.688526 0.000111813
178 1 0.559939 0.689055 0.0062949
186 1 0.810265 0.689265 0.00175492
190 1 0.939527 0.691011 0.00420761
197 1 0.119528 0.748128 0.00164202
199 1 0.186946 0.748988 0.0583952
209 1 0.499437 0.746663 0.00524567
198 1 0.182458 0.810437 0.00227602
202 1 0.315134 0.817645 0.00492257
206 1 0.437708 0.807076 0.00527409
216 1 0.621653 0.800074 0.0579465
218 1 0.812917 0.815439 0.000628942
222 1 0.941322 0.813605 0.0013865
241 1 0.497633 0.875684 0.000557377
245 1 0.622482 0.868356 0.00187878
225 1 0.995504 0.882127 0.0105013
238 1 0.439914 0.933982 0.00239338
226 1 0.0547477 0.946732 0.00119579
236 1 0.240623 0.941339 0.0573507
234 1 0.307983 0.941299 0.00180787
13 1 0.372575 0.999141 0.00200882
254 1 0.938178 0.942528 0.00822814
7 1 0.185253 0.00306133 0.0608491
11 1 0.310373 0.00513516 0.0659671
23 1 0.686495 0.0010007 0.0649205
31 1 0.932504 0.00771972 0.0687575
8 1 0.120552 0.0614474 0.0647154
12 1 0.250272 0.0687668 0.0641855
20 1 0.504707 0.0600125 0.0601742
28 1 0.746087 0.064303 0.0652478
32 1 0.871135 0.0656202 0.0640016
4 1 0.994867 0.0621768 0.0642002
35 1 0.06123 0.126802 0.0646037
39 1 0.184766 0.121239 0.0596169
43 1 0.308423 0.12589 0.0691804
47 1 0.440112 0.12306 0.0592335
51 1 0.568683 0.128058 0.0616534
55 1 0.682412 0.1241 0.068779
59 1 0.808181 0.126384 0.0599108
63 1 0.938974 0.124113 0.0644851
40 1 0.120635 0.186257 0.06148
44 1 0.244521 0.184941 0.0660439
48 1 0.370751 0.183322 0.0703261
52 1 0.500048 0.189587 0.0612985
56 1 0.628517 0.190252 0.0611428
60 1 0.743735 0.188259 0.0635704
64 1 0.876601 0.187875 0.0595729
36 1 0.996266 0.187578 0.0687025
67 1 0.0568685 0.248704 0.0647164
71 1 0.182979 0.244591 0.0641431
79 1 0.431606 0.243078 0.0688224
83 1 0.564182 0.255025 0.0623324
87 1 0.683005 0.258914 0.0656046
91 1 0.808202 0.253852 0.0662562
95 1 0.938241 0.248729 0.0627519
68 1 0.00455727 0.315177 0.0628189
80 1 0.366906 0.309652 0.0681023
84 1 0.499601 0.311616 0.0682367
88 1 0.625438 0.320233 0.0641275
92 1 0.749699 0.316578 0.063645
96 1 0.876281 0.311018 0.0612013
107 1 0.308205 0.37553 0.0624577
111 1 0.43469 0.379279 0.0603711
115 1 0.562535 0.378596 0.0656725
119 1 0.685904 0.379331 0.0624543
123 1 0.814471 0.375136 0.0639885
127 1 0.946974 0.379574 0.060277
104 1 0.125351 0.434757 0.0627854
116 1 0.502653 0.438369 0.0683103
120 1 0.62088 0.441514 0.0646083
124 1 0.748091 0.436221 0.0588349
128 1 0.879412 0.434724 0.0611998
100 1 0.998985 0.441055 0.0654939
131 1 0.070484 0.501169 0.0641012
135 1 0.184023 0.492735 0.0664472
139 1 0.306623 0.502167 0.0591152
151 1 0.683632 0.507179 0.0629462
155 1 0.823605 0.501385 0.0652366
159 1 0.942445 0.508414 0.060776
132 1 0.00365557 0.565832 0.0660833
136 1 0.132008 0.561392 0.0634201
144 1 0.36967 0.559262 0.0608823
402 1 0.560614 0.564482 0.114942
152 1 0.622505 0.560758 0.0622563
156 1 0.75506 0.5579 0.0615157
160 1 0.880217 0.563805 0.0656564
163 1 0.0751034 0.623625 0.0685392
167 1 0.19147 0.62663 0.0671944
175 1 0.43572 0.620088 0.0610215
179 1 0.567086 0.62423 0.0603237
183 1 0.69353 0.623097 0.0611295
187 1 0.812351 0.626739 0.0618651
191 1 0.939785 0.627405 0.0590923
164 1 0.00200026 0.6846 0.0656698
168 1 0.128228 0.688919 0.0590987
172 1 0.256158 0.696429 0.0617417
176 1 0.37093 0.683157 0.064299
180 1 0.497 0.685028 0.0634939
184 1 0.628951 0.687323 0.0591974
188 1 0.751906 0.686117 0.0643303
192 1 0.878492 0.69005 0.06246
195 1 0.0595114 0.749114 0.0641033
203 1 0.319467 0.751385 0.0602994
207 1 0.432752 0.741423 0.0644072
211 1 0.557291 0.749242 0.0662021
215 1 0.688335 0.754371 0.0608822
219 1 0.817795 0.747449 0.0664028
223 1 0.941281 0.752727 0.0637015
196 1 0.00208645 0.810561 0.0636789
200 1 0.122807 0.817954 0.0614022
204 1 0.248142 0.807272 0.0599978
208 1 0.37839 0.813657 0.0669454
212 1 0.501296 0.813336 0.0622963
220 1 0.745709 0.817429 0.0593171
224 1 0.877967 0.818156 0.0588349
227 1 0.0658236 0.882184 0.0612633
231 1 0.18941 0.873572 0.0641498
235 1 0.318882 0.880588 0.0589644
239 1 0.434371 0.878798 0.0628238
243 1 0.56155 0.877147 0.068611
247 1 0.68432 0.875496 0.0629094
251 1 0.809929 0.877599 0.0642627
255 1 0.938136 0.876385 0.0706024
232 1 0.128889 0.937856 0.0596666
240 1 0.376278 0.938602 0.064899
244 1 0.498001 0.937685 0.0663636
248 1 0.629367 0.938852 0.0734086
252 1 0.745093 0.939628 0.0630702
228 1 0.998804 0.940815 0.0738921
3 1 0.0611423 0.998995 0.0640872
15 1 0.443689 0.998508 0.0674244
19 1 0.562586 0.995755 0.0598031
27 1 0.80926 0.998906 0.0643858
256 1 0.871806 0.94425 0.0639872
261 1 0.123055 0.00372967 0.127506
265 1 0.251203 0.000848249 0.121012
269 1 0.374194 0.00584349 0.12666
277 1 0.62418 0.00694848 0.121981
281 1 0.74625 0.00040662 0.126063
285 1 0.872038 0.00173281 0.129239
257 1 0.999268 0.00371914 0.128765
258 1 0.0576126 0.0628035 0.121404
262 1 0.186549 0.0611888 0.125361
266 1 0.309729 0.0671046 0.126477
270 1 0.443225 0.0608363 0.125285
274 1 0.564828 0.0621667 0.126511
278 1 0.691263 0.062095 0.129478
282 1 0.810492 0.0617869 0.120662
286 1 0.936948 0.0690503 0.127925
293 1 0.117983 0.124229 0.129779
297 1 0.242489 0.127528 0.125465
301 1 0.377676 0.119182 0.124818
305 1 0.504884 0.128535 0.121407
309 1 0.622622 0.122223 0.126972
313 1 0.749099 0.12752 0.123014
317 1 0.870531 0.129568 0.123512
289 1 0.996771 0.127041 0.123993
290 1 0.0551907 0.187695 0.136619
294 1 0.17999 0.180545 0.124566
298 1 0.307743 0.187203 0.129996
302 1 0.439961 0.181702 0.12532
306 1 0.562183 0.192074 0.118542
310 1 0.681531 0.188994 0.12871
314 1 0.807482 0.187861 0.123359
318 1 0.934549 0.190847 0.125051
325 1 0.120157 0.244977 0.129203
329 1 0.24492 0.245292 0.126656
333 1 0.370022 0.251514 0.126389
337 1 0.500009 0.249581 0.124811
341 1 0.622794 0.252535 0.126531
345 1 0.745136 0.247569 0.122728
349 1 0.874495 0.250925 0.127779
321 1 0.996827 0.252138 0.124554
322 1 0.0614412 0.318133 0.121982
326 1 0.186797 0.309204 0.129256
330 1 0.303063 0.308838 0.121574
334 1 0.430872 0.313889 0.124376
338 1 0.565888 0.313081 0.128564
342 1 0.68565 0.318307 0.127631
346 1 0.816427 0.317277 0.124573
350 1 0.936957 0.312623 0.121252
357 1 0.128909 0.370844 0.122723
361 1 0.246444 0.375716 0.118278
365 1 0.36925 0.376607 0.118688
369 1 0.496234 0.375487 0.128445
373 1 0.629479 0.379986 0.129226
377 1 0.755041 0.377937 0.12535
381 1 0.877883 0.375339 0.121571
353 1 0.9996 0.369327 0.128114
354 1 0.0596031 0.435803 0.123844
358 1 0.184029 0.430357 0.12894
362 1 0.30808 0.43437 0.1287
366 1 0.432161 0.434281 0.125653
370 1 0.563021 0.444503 0.126853
374 1 0.690188 0.441065 0.121604
378 1 0.813927 0.438786 0.121177
382 1 0.945096 0.432356 0.130196
389 1 0.119973 0.492725 0.129166
393 1 0.247694 0.49448 0.120254
397 1 0.368032 0.492972 0.121785
401 1 0.497679 0.510856 0.120679
405 1 0.622425 0.50182 0.126511
409 1 0.750407 0.498745 0.119558
413 1 0.883401 0.492958 0.124717
385 1 0.998795 0.501703 0.127008
386 1 0.0629756 0.557738 0.124965
390 1 0.19318 0.561984 0.120935
394 1 0.305615 0.553747 0.123792
398 1 0.428056 0.557282 0.123191
406 1 0.68858 0.568837 0.122986
410 1 0.818195 0.561161 0.128515
414 1 0.939981 0.562419 0.131082
417 1 0.00947696 0.625646 0.129977
421 1 0.132908 0.620032 0.127257
425 1 0.256449 0.625044 0.121181
429 1 0.362624 0.614478 0.129274
433 1 0.493973 0.617777 0.122075
437 1 0.623065 0.622324 0.1216
441 1 0.752669 0.624276 0.123977
445 1 0.880105 0.620445 0.126971
418 1 0.0693973 0.684969 0.124344
422 1 0.191119 0.685144 0.122477
426 1 0.309124 0.690086 0.123327
430 1 0.435958 0.68745 0.128757
434 1 0.56375 0.685377 0.121425
438 1 0.687065 0.687566 0.122326
442 1 0.816932 0.683892 0.124254
446 1 0.942317 0.685864 0.126603
453 1 0.131187 0.747645 0.120265
457 1 0.250882 0.748172 0.125498
461 1 0.373977 0.744321 0.125079
465 1 0.500738 0.74777 0.131888
469 1 0.627347 0.746892 0.124118
473 1 0.744202 0.759714 0.125799
477 1 0.87584 0.747372 0.127056
449 1 0.996564 0.751856 0.126639
450 1 0.066739 0.809117 0.124567
454 1 0.184799 0.812346 0.126181
458 1 0.314616 0.810722 0.120803
462 1 0.437743 0.80743 0.122549
466 1 0.564129 0.81086 0.122091
470 1 0.683527 0.812238 0.119245
474 1 0.807005 0.813798 0.124306
478 1 0.935413 0.812186 0.125033
481 1 0.00194152 0.872307 0.123275
485 1 0.130931 0.879368 0.124843
493 1 0.377441 0.872543 0.123775
497 1 0.498911 0.879176 0.125286
501 1 0.630715 0.87594 0.126361
505 1 0.75033 0.876978 0.124621
509 1 0.876021 0.874758 0.126543
486 1 0.189408 0.939687 0.126672
489 1 0.254725 0.886232 0.121893
494 1 0.43674 0.935356 0.127094
498 1 0.56826 0.9398 0.133157
502 1 0.688593 0.936777 0.1257
506 1 0.806076 0.938131 0.125001
482 1 0.0664143 0.941663 0.127376
490 1 0.316188 0.9414 0.124202
273 1 0.507306 0.998529 0.123381
510 1 0.931517 0.941213 0.126768
259 1 0.0581285 0.00707581 0.184588
263 1 0.192873 0.00157248 0.183176
267 1 0.311891 0.00553055 0.184989
275 1 0.564294 0.00115481 0.188806
283 1 0.812286 0.000429427 0.186732
287 1 0.935118 0.00249526 0.182824
264 1 0.126236 0.0614 0.19028
268 1 0.248866 0.0616838 0.189929
272 1 0.379864 0.0608249 0.18897
276 1 0.501812 0.0639312 0.188052
280 1 0.632767 0.0591059 0.186821
284 1 0.752964 0.0645314 0.187277
288 1 0.87098 0.0600879 0.18873
260 1 0.997394 0.065278 0.182238
291 1 0.0593381 0.119073 0.192886
295 1 0.187479 0.125149 0.185744
299 1 0.308327 0.125845 0.187684
303 1 0.438278 0.124768 0.190937
307 1 0.56387 0.128968 0.1907
311 1 0.68808 0.125119 0.186959
315 1 0.804624 0.128332 0.187543
319 1 0.932878 0.126474 0.191396
296 1 0.122435 0.189978 0.18926
300 1 0.247112 0.186785 0.19568
304 1 0.373362 0.187241 0.189798
308 1 0.496124 0.186443 0.187994
312 1 0.622339 0.188823 0.186869
316 1 0.743105 0.189237 0.187742
320 1 0.871383 0.184972 0.188839
292 1 0.994443 0.17934 0.19107
323 1 0.0579334 0.247154 0.190157
327 1 0.188322 0.250434 0.19415
331 1 0.314997 0.249723 0.195246
335 1 0.437927 0.251621 0.185482
339 1 0.559084 0.250059 0.186372
343 1 0.684679 0.254125 0.186407
347 1 0.805454 0.249011 0.184772
351 1 0.939001 0.250233 0.185876
324 1 0.00189181 0.310512 0.188197
328 1 0.123812 0.308887 0.184017
332 1 0.255499 0.309078 0.194694
336 1 0.371489 0.311507 0.18729
340 1 0.497999 0.312123 0.18989
344 1 0.626657 0.316643 0.189849
348 1 0.749953 0.311501 0.181362
352 1 0.869794 0.309689 0.19081
355 1 0.0671146 0.371585 0.186253
359 1 0.189558 0.362506 0.193347
363 1 0.314005 0.370473 0.195973
367 1 0.440879 0.372214 0.188388
371 1 0.565871 0.380339 0.186536
375 1 0.694615 0.380522 0.185644
379 1 0.813646 0.374989 0.188378
383 1 0.94115 0.373527 0.189094
356 1 0.00344654 0.427729 0.19607
360 1 0.126098 0.430982 0.189164
364 1 0.243313 0.433988 0.18834
368 1 0.372746 0.429965 0.186704
372 1 0.501404 0.435508 0.189083
376 1 0.629671 0.436327 0.187768
380 1 0.750812 0.444112 0.183182
384 1 0.875875 0.432042 0.189564
387 1 0.0587856 0.496405 0.188254
391 1 0.187577 0.493726 0.187324
395 1 0.31074 0.492814 0.189895
399 1 0.439941 0.495532 0.18233
403 1 0.56272 0.508332 0.186164
407 1 0.687542 0.504044 0.183382
411 1 0.812857 0.500879 0.182283
415 1 0.940154 0.492519 0.189429
388 1 0.00345353 0.564673 0.190523
392 1 0.1286 0.560239 0.187409
396 1 0.247739 0.553468 0.18713
400 1 0.372399 0.551127 0.184211
404 1 0.493161 0.565799 0.189377
408 1 0.625108 0.563306 0.183051
412 1 0.752609 0.563308 0.184641
416 1 0.878869 0.554014 0.191219
419 1 0.0662943 0.620867 0.1896
423 1 0.195442 0.620239 0.180129
427 1 0.313436 0.62066 0.193074
431 1 0.426021 0.624373 0.1792
435 1 0.562529 0.615861 0.181761
439 1 0.68789 0.621181 0.183332
443 1 0.819153 0.618454 0.189275
447 1 0.942265 0.623314 0.18701
420 1 0.00648363 0.687899 0.184085
424 1 0.129322 0.68334 0.188055
428 1 0.251121 0.683313 0.185959
432 1 0.371134 0.68437 0.185651
436 1 0.496726 0.682595 0.18677
440 1 0.621079 0.679926 0.186339
444 1 0.751292 0.682892 0.182969
448 1 0.878985 0.683767 0.182661
451 1 0.0638229 0.749825 0.180801
455 1 0.194111 0.752619 0.186665
459 1 0.312485 0.752403 0.18096
463 1 0.437602 0.746703 0.189541
467 1 0.565642 0.746752 0.18888
471 1 0.68841 0.754776 0.188985
475 1 0.81166 0.75055 0.185964
479 1 0.938218 0.747847 0.18878
452 1 0.00195689 0.815282 0.186242
456 1 0.128126 0.810742 0.182231
460 1 0.25313 0.81634 0.183172
464 1 0.377722 0.809034 0.182954
468 1 0.498665 0.812535 0.185114
472 1 0.622313 0.810392 0.189481
476 1 0.750819 0.817673 0.187738
480 1 0.878039 0.808234 0.187102
483 1 0.0628112 0.87484 0.185832
487 1 0.194305 0.877587 0.187599
491 1 0.314017 0.87802 0.184968
495 1 0.441657 0.873874 0.188955
499 1 0.56349 0.869881 0.183503
503 1 0.686032 0.872969 0.185456
507 1 0.810972 0.876829 0.187666
511 1 0.936274 0.870832 0.188563
488 1 0.125776 0.941101 0.188539
492 1 0.251485 0.936796 0.188287
500 1 0.503865 0.936844 0.184998
504 1 0.628016 0.933073 0.193638
508 1 0.750137 0.933376 0.185614
512 1 0.874415 0.936618 0.190175
484 1 0.998288 0.937104 0.183642
496 1 0.374685 0.94374 0.187403
271 1 0.441169 0.997893 0.183633
279 1 0.687873 0.996218 0.186286
513 1 0.0013398 0.000715219 0.247069
514 1 0.062822 0.0583679 0.25325
521 1 0.25584 0.00064743 0.249613
522 1 0.316713 0.0582866 0.253955
533 1 0.624327 0.00121467 0.248943
541 1 0.871907 0.00346788 0.251297
518 1 0.186577 0.0659574 0.250317
526 1 0.436194 0.0593677 0.250616
530 1 0.565289 0.0691552 0.245078
534 1 0.690003 0.0605405 0.245506
538 1 0.808972 0.0599358 0.249576
542 1 0.938143 0.0625485 0.247248
549 1 0.12822 0.120325 0.250339
553 1 0.254341 0.121827 0.252932
557 1 0.37392 0.126491 0.250945
561 1 0.500193 0.124048 0.25551
565 1 0.629363 0.122664 0.24986
569 1 0.747712 0.125411 0.249366
573 1 0.869926 0.126332 0.250207
545 1 0.994855 0.121287 0.254217
546 1 0.060332 0.180867 0.254643
550 1 0.185099 0.184558 0.252961
554 1 0.309941 0.18185 0.256244
558 1 0.437909 0.193571 0.246137
562 1 0.560454 0.19043 0.254558
566 1 0.686998 0.188311 0.249908
570 1 0.813619 0.189622 0.246425
574 1 0.931936 0.183716 0.251119
577 1 0.00272195 0.249206 0.255279
581 1 0.123263 0.24841 0.252633
585 1 0.255053 0.250615 0.257519
589 1 0.381375 0.252059 0.249105
593 1 0.499863 0.250743 0.247154
597 1 0.624864 0.251601 0.247107
601 1 0.746439 0.253778 0.248805
605 1 0.872914 0.248344 0.247649
578 1 0.0620068 0.307619 0.254402
582 1 0.188518 0.308688 0.255643
586 1 0.313666 0.310365 0.258134
590 1 0.439104 0.314236 0.253582
594 1 0.564502 0.318315 0.250122
598 1 0.687909 0.315794 0.249102
602 1 0.804836 0.314665 0.248075
606 1 0.935717 0.312885 0.251192
613 1 0.125811 0.369786 0.256127
617 1 0.249987 0.371831 0.251681
621 1 0.38073 0.374425 0.253878
625 1 0.501292 0.371646 0.248832
629 1 0.623338 0.378412 0.252086
633 1 0.749375 0.37668 0.251401
637 1 0.874832 0.373308 0.249938
609 1 0.999787 0.36837 0.254599
610 1 0.0627316 0.438173 0.250199
614 1 0.184178 0.435607 0.256196
618 1 0.317714 0.442332 0.251218
622 1 0.441463 0.43524 0.245432
626 1 0.558332 0.439172 0.253551
630 1 0.691886 0.440329 0.248598
634 1 0.814538 0.438861 0.253975
638 1 0.935684 0.431993 0.249576
645 1 0.125095 0.496872 0.249462
649 1 0.245431 0.495232 0.250937
653 1 0.379486 0.495017 0.245262
657 1 0.506029 0.508521 0.248061
661 1 0.624685 0.499921 0.252736
665 1 0.7521 0.500276 0.245841
669 1 0.879847 0.495639 0.252767
641 1 0.999135 0.495481 0.250668
642 1 0.0656546 0.5603 0.246226
646 1 0.19296 0.565447 0.248514
650 1 0.311366 0.557423 0.248336
654 1 0.431415 0.559514 0.250577
658 1 0.564603 0.563082 0.248807
662 1 0.68818 0.562444 0.250244
666 1 0.813285 0.561683 0.250781
670 1 0.940053 0.555745 0.245739
673 1 0.00159125 0.630015 0.246442
677 1 0.131569 0.624741 0.251283
681 1 0.243033 0.630135 0.247531
685 1 0.372556 0.61852 0.249923
689 1 0.499178 0.621513 0.252944
693 1 0.623436 0.622926 0.253864
697 1 0.749453 0.62023 0.245217
701 1 0.880468 0.620762 0.247667
674 1 0.0663447 0.687555 0.247265
678 1 0.18849 0.689892 0.249384
682 1 0.312604 0.689105 0.244476
686 1 0.438531 0.686792 0.24876
690 1 0.560078 0.683308 0.246453
694 1 0.690699 0.68822 0.244634
698 1 0.811094 0.684273 0.250256
702 1 0.938242 0.685674 0.250032
705 1 0.00339266 0.741265 0.248407
709 1 0.128711 0.75008 0.243369
713 1 0.254622 0.753805 0.247206
717 1 0.377602 0.748828 0.247418
721 1 0.500765 0.753906 0.246804
725 1 0.626383 0.750605 0.247672
729 1 0.752725 0.752726 0.2505
733 1 0.87004 0.748389 0.252741
706 1 0.0621401 0.809558 0.249885
710 1 0.192492 0.809702 0.250751
714 1 0.314733 0.814291 0.250307
718 1 0.44385 0.814705 0.248512
722 1 0.563009 0.812869 0.249164
726 1 0.686495 0.819247 0.25013
730 1 0.813158 0.812091 0.247883
734 1 0.931437 0.814891 0.25182
737 1 0.000243521 0.879553 0.245644
741 1 0.12388 0.87046 0.24538
745 1 0.253042 0.876013 0.250467
749 1 0.372481 0.870773 0.250874
753 1 0.503816 0.876988 0.25019
757 1 0.624659 0.871985 0.254158
761 1 0.754005 0.872612 0.252402
765 1 0.871206 0.87585 0.248183
738 1 0.0653199 0.941146 0.245359
742 1 0.190893 0.940544 0.249981
746 1 0.315447 0.935584 0.248875
750 1 0.432802 0.928981 0.248383
754 1 0.56494 0.934757 0.24762
758 1 0.692829 0.932628 0.249828
762 1 0.810102 0.939007 0.248485
766 1 0.939097 0.939802 0.24768
517 1 0.127445 0.996963 0.251648
525 1 0.376344 0.996004 0.252233
529 1 0.502457 0.991906 0.248613
537 1 0.750632 0.995781 0.249145
515 1 0.0644256 0.0042231 0.316776
519 1 0.192779 0.00567552 0.310868
528 1 0.382276 0.056535 0.315883
532 1 0.500158 0.0579619 0.308989
536 1 0.624866 0.0588105 0.308811
543 1 0.936699 0.00105013 0.309802
516 1 0.995585 0.0567293 0.308222
520 1 0.129539 0.0600513 0.316759
524 1 0.251749 0.0601699 0.314502
540 1 0.747013 0.0605679 0.31081
544 1 0.871871 0.0591547 0.315841
547 1 0.0600768 0.121554 0.315926
551 1 0.189946 0.124098 0.313558
555 1 0.314042 0.121753 0.314424
559 1 0.4355 0.124137 0.312293
563 1 0.566022 0.122952 0.310196
567 1 0.685071 0.119384 0.314364
571 1 0.806864 0.1217 0.3128
575 1 0.932052 0.121116 0.312693
552 1 0.124097 0.183102 0.311798
556 1 0.245781 0.184299 0.312596
560 1 0.381065 0.186153 0.309352
564 1 0.502949 0.194601 0.313949
568 1 0.62944 0.182341 0.311096
572 1 0.747544 0.188687 0.309411
576 1 0.867436 0.184874 0.314112
548 1 0.993044 0.187654 0.315221
579 1 0.0580817 0.251028 0.315653
583 1 0.183695 0.244287 0.315257
587 1 0.324601 0.246034 0.310542
591 1 0.43874 0.252203 0.313937
595 1 0.566907 0.253375 0.309728
599 1 0.686542 0.250389 0.310689
603 1 0.811187 0.253879 0.310367
607 1 0.930482 0.249471 0.316311
584 1 0.125684 0.307661 0.317045
588 1 0.247568 0.314911 0.314668
592 1 0.379633 0.309827 0.311774
596 1 0.496544 0.313204 0.315654
600 1 0.627434 0.311825 0.306544
604 1 0.750563 0.315067 0.318193
608 1 0.874903 0.311473 0.310924
580 1 0.99731 0.312247 0.317384
611 1 0.0606893 0.372011 0.31379
615 1 0.186696 0.372907 0.319481
619 1 0.315306 0.37452 0.311099
623 1 0.437665 0.376603 0.314062
627 1 0.561739 0.372455 0.316441
631 1 0.69046 0.376497 0.308945
635 1 0.814172 0.378711 0.315853
639 1 0.938608 0.372903 0.31197
612 1 0.00244127 0.435089 0.311908
616 1 0.120749 0.435229 0.314644
620 1 0.255213 0.436811 0.313411
624 1 0.375321 0.436367 0.314763
628 1 0.496769 0.439281 0.309905
632 1 0.622894 0.443392 0.315978
636 1 0.751845 0.445355 0.313183
640 1 0.87719 0.433086 0.31053
643 1 0.0562264 0.503653 0.31065
647 1 0.182737 0.501678 0.31121
651 1 0.316077 0.495956 0.318175
655 1 0.435607 0.498568 0.311649
659 1 0.562692 0.503318 0.31152
663 1 0.690033 0.499885 0.31644
667 1 0.817749 0.500126 0.311949
671 1 0.941693 0.498652 0.31217
648 1 0.123918 0.562215 0.313576
652 1 0.251863 0.554807 0.311562
656 1 0.367412 0.558729 0.310968
660 1 0.491081 0.561012 0.313466
664 1 0.626677 0.559533 0.317561
668 1 0.753443 0.557534 0.310394
672 1 0.882446 0.558316 0.309165
644 1 0.998359 0.559082 0.30782
675 1 0.061593 0.617378 0.30727
679 1 0.187662 0.623441 0.309188
683 1 0.306 0.623892 0.308092
687 1 0.435115 0.625269 0.31147
691 1 0.556467 0.622274 0.312201
695 1 0.691491 0.62713 0.310307
699 1 0.812533 0.621132 0.316244
703 1 0.938536 0.620641 0.30638
680 1 0.122989 0.690554 0.309322
684 1 0.251241 0.693526 0.304262
688 1 0.374341 0.683508 0.307794
692 1 0.494793 0.688269 0.310507
696 1 0.626417 0.685981 0.310498
700 1 0.748103 0.690075 0.310316
704 1 0.873874 0.688272 0.309639
676 1 0.998285 0.685607 0.311614
707 1 0.0589356 0.748636 0.317343
711 1 0.189163 0.752044 0.307945
715 1 0.318152 0.748106 0.308414
719 1 0.440309 0.751804 0.306966
723 1 0.563656 0.752185 0.313835
727 1 0.689453 0.749752 0.303308
731 1 0.808123 0.745719 0.313716
735 1 0.941568 0.746228 0.308538
712 1 0.1259 0.808082 0.306671
716 1 0.250888 0.812134 0.310217
720 1 0.372741 0.813254 0.311561
724 1 0.505179 0.811325 0.312945
728 1 0.622399 0.813789 0.316972
732 1 0.751057 0.812932 0.311013
736 1 0.87312 0.812782 0.309238
708 1 0.995825 0.809642 0.312377
739 1 0.0615795 0.870006 0.30477
743 1 0.184642 0.870487 0.307183
747 1 0.312138 0.8793 0.314007
751 1 0.441455 0.86689 0.306904
755 1 0.563076 0.874696 0.311416
759 1 0.689736 0.874795 0.311324
763 1 0.810623 0.871762 0.315762
744 1 0.126162 0.936468 0.309157
752 1 0.378258 0.939376 0.310515
756 1 0.50377 0.933315 0.312724
760 1 0.633374 0.934844 0.311915
764 1 0.750971 0.932636 0.314528
768 1 0.871033 0.940901 0.308992
767 1 0.939761 0.885195 0.308751
740 1 0.00323357 0.947541 0.31301
748 1 0.250742 0.942565 0.315549
523 1 0.316114 0.997206 0.315819
527 1 0.440445 0.999486 0.307698
531 1 0.562268 0.994532 0.3069
535 1 0.687582 0.997868 0.311696
539 1 0.808515 0.998256 0.311077
769 1 0.000390599 0.00337037 0.375778
777 1 0.247986 0.00662495 0.380492
781 1 0.371196 0.00391564 0.380892
786 1 0.564229 0.0567226 0.370683
790 1 0.68368 0.0535287 0.374339
793 1 0.753846 0.00113651 0.376902
770 1 0.0620989 0.0643722 0.381602
774 1 0.187404 0.0669428 0.378226
778 1 0.308065 0.0612038 0.376493
782 1 0.446486 0.0611508 0.372316
794 1 0.808584 0.0591327 0.368945
798 1 0.934199 0.0641075 0.376991
805 1 0.122308 0.122284 0.37011
809 1 0.247524 0.123334 0.375103
813 1 0.376404 0.12657 0.371954
817 1 0.510099 0.118231 0.375487
821 1 0.627006 0.122298 0.374977
825 1 0.748637 0.122814 0.377299
829 1 0.868602 0.126978 0.379493
801 1 0.994101 0.123867 0.364483
802 1 0.0586464 0.182567 0.373141
806 1 0.184736 0.184824 0.377962
810 1 0.317643 0.184904 0.368623
814 1 0.439419 0.189221 0.378422
818 1 0.56893 0.184555 0.371624
822 1 0.688083 0.18285 0.374425
826 1 0.805997 0.185447 0.371462
830 1 0.933841 0.182638 0.376068
837 1 0.124458 0.242172 0.376385
841 1 0.252675 0.247846 0.375278
845 1 0.374747 0.246519 0.38324
849 1 0.501688 0.252331 0.375993
853 1 0.62732 0.243177 0.371896
857 1 0.7501 0.250418 0.373011
861 1 0.875172 0.247632 0.38148
833 1 0.994015 0.251674 0.376972
834 1 0.0627736 0.312087 0.381181
838 1 0.181134 0.306743 0.374858
842 1 0.314856 0.307337 0.367678
846 1 0.437616 0.310058 0.376105
850 1 0.570277 0.313071 0.379288
854 1 0.681661 0.31067 0.376909
858 1 0.82006 0.316718 0.371107
862 1 0.930676 0.314468 0.371978
865 1 0.00445992 0.371402 0.378116
869 1 0.122213 0.367566 0.37692
873 1 0.253383 0.370745 0.373988
877 1 0.376415 0.371824 0.373794
881 1 0.492742 0.377186 0.379216
885 1 0.630123 0.376664 0.370707
889 1 0.745565 0.377343 0.372305
893 1 0.877438 0.37602 0.376999
866 1 0.0622478 0.438551 0.376449
870 1 0.180533 0.437705 0.3731
874 1 0.312397 0.433649 0.376898
878 1 0.432014 0.439757 0.374414
882 1 0.556628 0.444132 0.378955
886 1 0.691137 0.440164 0.383955
890 1 0.818304 0.440314 0.373233
894 1 0.938772 0.437695 0.378485
897 1 0.0023299 0.499087 0.372825
901 1 0.130399 0.506631 0.377618
905 1 0.252158 0.495641 0.375571
909 1 0.373994 0.494827 0.37841
913 1 0.489963 0.501803 0.380541
917 1 0.623564 0.503049 0.381812
921 1 0.755786 0.499143 0.377091
925 1 0.880909 0.504912 0.369461
898 1 0.0635987 0.563758 0.370863
902 1 0.191847 0.564506 0.37318
906 1 0.310256 0.557871 0.378735
910 1 0.435407 0.566301 0.376617
914 1 0.560476 0.565074 0.378679
918 1 0.687269 0.566308 0.375616
922 1 0.813735 0.560851 0.370828
926 1 0.941301 0.560308 0.377617
933 1 0.124987 0.62516 0.371751
937 1 0.251857 0.622173 0.370422
941 1 0.381089 0.627139 0.377502
945 1 0.497132 0.62743 0.373608
949 1 0.62777 0.622098 0.372962
953 1 0.749585 0.625461 0.373404
957 1 0.875247 0.624068 0.374181
929 1 0.999211 0.619838 0.36264
930 1 0.0639492 0.682475 0.369129
934 1 0.189612 0.685895 0.368456
938 1 0.312958 0.683511 0.375766
942 1 0.436667 0.694673 0.370527
946 1 0.557302 0.686923 0.37119
950 1 0.688522 0.688598 0.37113
954 1 0.813586 0.687141 0.371891
958 1 0.938857 0.686904 0.371159
965 1 0.129059 0.749199 0.367885
969 1 0.253453 0.7479 0.368428
973 1 0.370552 0.750387 0.37732
977 1 0.495819 0.752197 0.373401
981 1 0.631244 0.750365 0.372646
985 1 0.745115 0.756266 0.372945
989 1 0.881747 0.749267 0.368453
961 1 0.995054 0.754168 0.374445
962 1 0.0630547 0.809358 0.375629
966 1 0.184714 0.815154 0.373074
970 1 0.317264 0.816444 0.381173
974 1 0.43349 0.808685 0.374014
978 1 0.561556 0.813483 0.373612
982 1 0.688066 0.815638 0.373732
986 1 0.8165 0.815352 0.376694
990 1 0.935436 0.812446 0.373277
997 1 0.124644 0.876399 0.368251
1001 1 0.255894 0.873239 0.37596
1005 1 0.381343 0.88064 0.376539
1009 1 0.497913 0.872109 0.37221
1013 1 0.624209 0.873508 0.375296
1017 1 0.746736 0.875113 0.376553
1021 1 0.87925 0.878354 0.372055
993 1 0.997983 0.875148 0.3672
994 1 0.0649963 0.932761 0.36947
998 1 0.187657 0.935065 0.369597
1002 1 0.314576 0.93782 0.375769
1006 1 0.441885 0.936557 0.367099
1010 1 0.562409 0.937329 0.368958
1014 1 0.68898 0.939162 0.376409
1018 1 0.813855 0.937652 0.378165
773 1 0.129418 0.997202 0.374897
785 1 0.503207 0.996908 0.368059
789 1 0.6219 0.999122 0.368668
797 1 0.879383 0.999962 0.379815
1022 1 0.940003 0.942393 0.371925
776 1 0.123322 0.0555011 0.439623
779 1 0.306445 0.00279879 0.434396
783 1 0.437459 0.00191888 0.43501
796 1 0.746859 0.0580768 0.439245
799 1 0.943066 0.00621619 0.437071
772 1 0.00144306 0.068721 0.437805
780 1 0.239071 0.0628205 0.440202
784 1 0.369697 0.0658415 0.437793
788 1 0.503783 0.0647826 0.438462
792 1 0.61946 0.0592252 0.436798
823 1 0.684879 0.114599 0.437999
800 1 0.874677 0.0592554 0.442902
803 1 0.0686241 0.126926 0.439103
807 1 0.174702 0.12125 0.439223
811 1 0.308064 0.133654 0.445649
815 1 0.434672 0.127151 0.433204
819 1 0.564955 0.126636 0.440182
827 1 0.812042 0.120361 0.435221
831 1 0.934544 0.122869 0.432874
808 1 0.12789 0.189954 0.440882
812 1 0.241257 0.188701 0.440986
816 1 0.375537 0.186055 0.442816
820 1 0.500344 0.188299 0.437747
824 1 0.624003 0.19131 0.437374
828 1 0.749498 0.177977 0.437832
832 1 0.872747 0.185827 0.442262
804 1 0.997107 0.181624 0.430933
835 1 0.0619778 0.246802 0.438599
839 1 0.18525 0.253402 0.442474
843 1 0.310555 0.248816 0.437973
847 1 0.439458 0.25152 0.438509
851 1 0.559928 0.246017 0.437915
855 1 0.688629 0.249879 0.433159
859 1 0.812463 0.250788 0.440809
863 1 0.938084 0.246263 0.440272
840 1 0.127149 0.314776 0.436541
844 1 0.246485 0.310245 0.438466
848 1 0.37593 0.309346 0.443081
852 1 0.500361 0.311689 0.438861
856 1 0.624806 0.310213 0.439688
860 1 0.751035 0.316136 0.429774
864 1 0.868125 0.316221 0.442122
836 1 0.99852 0.315094 0.439068
867 1 0.063702 0.377759 0.440767
871 1 0.182693 0.379981 0.439127
875 1 0.313191 0.369063 0.434396
879 1 0.433788 0.367472 0.441983
883 1 0.562133 0.376431 0.435069
887 1 0.685734 0.376456 0.439847
891 1 0.810896 0.375025 0.438035
895 1 0.939609 0.378778 0.437309
872 1 0.125516 0.445751 0.437738
876 1 0.249525 0.436842 0.438451
880 1 0.37752 0.426761 0.439922
884 1 0.492037 0.439941 0.438297
888 1 0.622467 0.441578 0.436429
892 1 0.753856 0.440755 0.439879
896 1 0.8771 0.439027 0.435897
868 1 0.994501 0.438563 0.439774
899 1 0.0554106 0.502542 0.44221
903 1 0.189862 0.502328 0.439241
907 1 0.313887 0.497356 0.43921
911 1 0.436205 0.504538 0.439641