ITEM: TIMESTEP
100000
ITEM: NUMBER OF ATOMS
2048
ITEM: BOX BOUNDS pp pp pp
0.0000000000000000e+00 1.3679807573413575e+01
0.0000000000000000e+00 1.3679807573413575e+01
0.0000000000000000e+00 1.3679807573413575e+01
ITEM: ATOMS id type xs ys zs
1671 1 0.0657842 0.00359131 0.123919
878 1 0.658901 0.0279434 0.189667
561 1 0.752552 0.0530873 0.905414
1962 1 0.633725 0.684563 0.00609092
1514 1 0.174348 0.183051 0.853872
999 1 0.307055 0.0762421 0.0131353
619 1 0.595112 0.0904429 0.182048
1169 1 0.910393 0.240336 0.925153
1064 1 0.991555 0.175964 0.0685167
2011 1 0.37332 0.101733 0.0184642
601 1 0.495077 0.9965 0.0524454
1145 1 0.468716 0.939257 0.0158129
1608 1 0.588357 0.315266 0.0982169
1605 1 0.950007 0.78483 0.00904945
680 1 0.894607 0.298363 0.980308
260 1 0.225092 0.131144 0.798965
971 1 0.391824 0.0344783 0.237479
1613 1 0.859495 0.25293 0.682018
1267 1 0.00495008 0.0876199 0.848939
1556 1 0.490695 0.182537 0.796919
1304 1 0.800573 0.0837295 0.857671
973 1 0.191671 0.368873 0.829479
62 1 0.74586 0.325713 0.931288
405 1 0.108983 0.235868 0.977901
1090 1 0.573803 0.32581 0.990422
994 1 0.728015 0.136512 0.0185355
911 1 0.57224 0.382118 0.852171
1829 1 0.714849 0.370758 0.842039
1546 1 0.864064 0.151314 0.961811
1013 1 0.0288191 0.322998 0.137599
1659 1 0.605878 0.74442 0.0970407
1189 1 0.75993 0.145776 0.958413
1322 1 0.795355 0.361783 0.65096
241 1 0.960662 0.267303 0.0466828
806 1 0.0580127 0.34153 0.0132968
1782 1 0.39605 0.345591 0.117791
691 1 0.412843 0.30649 0.0364751
632 1 0.579177 0.439717 0.0905653
1770 1 0.786829 0.221974 0.843761
1603 1 0.963336 0.604834 0.993526
1385 1 0.0850158 0.562692 0.0485168
544 1 0.148039 0.604385 0.0646118
329 1 0.263113 0.19044 0.849036
1711 1 0.464765 0.348439 0.0727238
1923 1 0.156735 0.206274 0.0259928
605 1 0.100681 0.662416 0.196288
1313 1 0.540558 0.360447 0.0544514
1293 1 0.77338 0.51521 0.877793
1054 1 0.25346 0.538474 0.0261699
1906 1 0.405066 0.631204 0.83171
1918 1 0.540789 0.589142 0.860225
2 1 0.900259 0.710543 0.290478
652 1 0.361003 0.649125 0.185898
1890 1 0.239584 0.450917 0.208513
33 1 0.257493 0.522198 0.118048
1752 1 0.414005 0.654508 0.0540602
1969 1 0.0136077 0.637407 0.868507
932 1 0.194047 0.719757 0.144623
597 1 0.284543 0.356875 0.693665
399 1 0.843609 0.678813 0.0181822
1245 1 0.147747 0.678783 0.0917403
1040 1 0.847794 0.535874 0.296671
1601 1 0.409906 0.597269 0.184729
966 1 0.237369 0.647324 0.125961
1034 1 0.579887 0.606334 0.0300641
1333 1 0.0684605 0.65969 0.0638734
1705 1 0.260253 0.587482 0.0916545
1976 1 0.935304 0.728109 0.941665
472 1 0.085651 0.783464 0.106114
1041 1 0.882312 0.0140295 0.235275
728 1 0.242131 0.975315 0.0719274
787 1 0.155825 0.00208368 0.219778
673 1 0.295035 0.832517 0.0254941
1959 1 0.54132 0.759193 0.978207
1975 1 0.465011 0.862904 0.051138
488 1 0.878482 0.937344 0.245817
1061 1 0.388872 0.806269 0.205499
920 1 0.274967 0.881914 0.540425
1188 1 0.60386 0.82555 0.120409
528 1 0.0838435 0.968963 0.263362
2003 1 0.237918 0.0708358 0.162633
1087 1 0.661556 0.926997 0.955454
595 1 0.817524 0.949332 0.982502
596 1 0.565105 0.563807 0.951814
1693 1 0.171067 0.920278 0.00701559
633 1 0.545203 0.79807 0.0430442
621 1 0.651465 0.820581 0.0664907
1200 1 0.541715 0.701736 0.428766
1474 1 0.726214 0.755028 0.124854
182 1 0.92487 0.0527668 0.0640758
499 1 0.136702 0.0877155 0.194382
1956 1 0.132322 0.953567 0.0858351
71 1 0.397803 0.870664 0.00925511
1875 1 0.0723982 0.12924 0.342917
539 1 0.300932 0.364876 0.950084
1631 1 0.506321 0.947268 0.172683
1814 1 0.969702 0.0697357 0.137278
1017 1 0.268728 0.0274417 0.885637
1786 1 0.923472 0.873221 0.896929
1725 1 0.23351 0.212782 0.0115738
1925 1 0.794668 0.225152 0.164122
1955 1 0.588555 0.212893 0.263966
12 1 0.535233 0.0952829 0.9279
471 1 0.692717 0.0139254 0.100802
894 1 0.0970105 0.319702 0.124555
626 1 0.412931 0.225935 0.790844
1694 1 0.460811 0.0835367 0.924779
1777 1 0.706964 0.0414403 0.27504
118 1 0.0391288 0.428003 0.0253511
445 1 0.207798 0.354459 0.143632
705 1 0.454504 0.236622 0.849513
1167 1 0.84525 0.253212 0.88114
1132 1 0.923004 0.0980811 0.995301
1112 1 0.130466 0.365511 0.0814524
1252 1 0.213916 0.291767 0.999583
1213 1 0.339626 0.274718 0.912278
1543 1 0.35489 0.205748 0.150913
1629 1 0.647596 0.192623 0.0721669
1103 1 0.830108 0.289063 0.0314847
1804 1 0.838553 0.291216 0.806085
1771 1 0.881262 0.216947 0.362949
242 1 0.892787 0.662803 0.070401
1102 1 0.0619156 0.450671 0.190195
778 1 0.642738 0.319095 0.175035
1622 1 0.898395 0.157151 0.0374976
866 1 0.766087 0.482906 0.967844
558 1 0.296672 0.159358 0.932503
954 1 0.567474 0.247831 0.0482589
594 1 0.847859 0.32628 0.0971338
719 1 0.874954 0.386317 0.0695252
170 1 0.290308 0.284818 0.138506
413 1 0.319332 0.356063 0.104688
2017 1 0.370655 0.270773 0.131107
1967 1 0.61144 0.2113 0.328133
829 1 0.693972 0.441507 0.0203563
90 1 0.711788 0.359778 0.0951113
1433 1 0.140947 0.790391 0.1606
1121 1 0.208233 0.538648 0.193206
1641 1 0.978848 0.768004 0.25916
1086 1 0.123497 0.586856 0.134704
1504 1 0.342529 0.331321 0.0205425
1998 1 0.420655 0.465646 0.264694
1840 1 0.569156 0.525674 0.0229852
1453 1 0.647528 0.413405 0.960419
164 1 0.523592 0.6627 0.925978
429 1 0.581445 0.430617 0.907061
580 1 0.574195 0.581668 0.392787
365 1 0.774951 0.503548 0.140865
1855 1 0.323459 0.523148 0.0764471
456 1 0.697816 0.698217 0.860051
1300 1 0.664041 0.563977 0.0680043
722 1 0.763671 0.860399 0.960477
1518 1 0.000472609 0.546103 0.00878637
804 1 0.153322 0.861045 0.182958
742 1 0.145955 0.873527 0.260556
811 1 0.187654 0.605515 0.170886
1590 1 0.555841 0.662371 0.341535
1187 1 0.842494 0.714888 0.0887555
1919 1 0.156532 0.761112 0.0972666
904 1 0.29331 0.667521 0.225671
1528 1 0.200019 0.718339 0.97944
455 1 0.911558 0.542006 0.19391
1750 1 0.213879 0.631947 0.0546636
1315 1 0.279229 0.753654 0.0520791
912 1 0.215115 0.791713 0.317505
1581 1 0.493211 0.73353 0.319535
1019 1 0.680248 0.643356 0.973498
727 1 -0.000269948 0.968843 0.136321
697 1 0.474375 0.671803 0.14584
1296 1 0.319316 0.734256 0.166661
336 1 0.218089 0.803677 0.190282
1657 1 0.131976 0.674901 0.0121288
458 1 0.221274 0.873633 0.231367
1413 1 0.554448 0.690979 0.017792
726 1 0.695021 0.822922 0.988333
1714 1 0.809261 0.895647 0.104781
1964 1 0.151091 0.927149 0.393041
1442 1 0.293066 0.890106 0.265927
781 1 0.854538 0.942171 0.0422394
1420 1 0.162319 0.952008 0.910239
1708 1 0.323004 0.969112 0.104864
294 1 0.672155 0.627634 0.179537
237 1 0.0563013 0.2486 0.154881
1774 1 0.0473049 0.12262 0.0520811
933 1 0.385993 0.0925321 0.184684
1798 1 0.57883 0.059051 0.076392
302 1 0.627206 0.988788 0.0795904
1850 1 0.568253 0.0603381 0.000166343
957 1 0.792663 0.0243178 0.0240509
672 1 0.43372 0.116157 0.131871
655 1 0.038332 0.0257973 0.293571
1186 1 0.376218 0.103349 0.087316
1435 1 0.0886281 0.1628 0.19058
1566 1 0.3332 0.166606 0.86375
354 1 0.67434 0.347056 0.948447
111 1 0.353113 0.0558975 0.95028
442 1 0.648004 0.0885978 0.0411459
447 1 0.27351 0.250654 0.212419
1367 1 0.343789 0.206288 0.0463924
1343 1 0.507243 0.211291 0.901661
681 1 0.832984 0.0426629 0.295906
1762 1 0.958988 0.251336 0.335075
332 1 0.167004 0.223265 0.0970257
1738 1 0.280186 0.214563 0.0742311
22 1 0.109177 0.228198 0.833898
842 1 0.697629 0.291195 0.00296484
905 1 0.579672 0.12852 0.0515167
676 1 0.831031 0.140401 0.0613802
1825 1 0.750268 0.829049 0.0445834
166 1 0.919645 0.392187 0.165238
124 1 0.88089 0.268155 0.213674
818 1 0.213116 0.374583 0.961192
573 1 0.0259498 0.243725 0.0267772
1757 1 0.904848 0.13113 0.188396
1572 1 0.377661 0.334002 0.903167
1695 1 0.931629 0.168515 0.928784
889 1 0.889033 0.525508 0.0625795
720 1 0.0791208 0.318305 0.195553
846 1 0.927711 0.217647 0.0893401
1220 1 0.303281 0.300185 0.739083
899 1 0.424675 0.253338 0.206493
72 1 0.433894 0.133207 0.986874
1683 1 0.703327 0.289349 0.275065
1058 1 0.14756 0.461763 0.230253
1856 1 0.543344 0.0795522 0.243363
155 1 0.878461 0.555632 0.872398
173 1 0.658462 0.401763 0.0856088
807 1 0.93178 0.621156 0.118297
1003 1 0.190853 0.234361 0.958927
55 1 0.13533 0.431913 0.320735
955 1 0.702627 0.667979 0.247257
575 1 0.927414 0.477976 0.984568
1043 1 0.086051 0.396626 0.154506
63 1 0.436671 0.26181 0.280902
1653 1 0.546216 0.53109 0.807009
32 1 0.994516 0.476488 0.951513
1161 1 0.0868756 0.800854 0.234444
512 1 0.431265 0.359468 0.262653
84 1 0.599529 0.624498 0.146083
159 1 0.930847 0.718006 0.00814568
311 1 0.936659 0.745339 0.0837984
851 1 0.610041 0.508648 0.784704
466 1 0.935575 0.595502 0.874696
1755 1 0.979457 0.566706 0.156926
1672 1 0.817758 0.500925 0.384012
967 1 0.158903 0.803329 0.273359
1319 1 0.714115 0.381568 0.994743
30 1 0.543273 0.50917 0.326646
906 1 0.828174 0.723924 0.27095
1921 1 0.990178 0.653322 0.932078
1486 1 0.94222 0.662152 0.198206
344 1 0.275085 0.450465 0.889051
885 1 0.966694 0.854603 0.0159148
238 1 0.788187 0.731527 0.207389
303 1 0.176195 0.831685 0.115212
1354 1 0.482193 0.653067 0.0624209
163 1 0.788011 0.749532 0.324991
684 1 0.778473 0.486166 0.276994
1789 1 0.997261 0.690452 0.0741267
1598 1 0.106601 0.890884 0.348026
1549 1 0.517622 0.57248 0.013157
1616 1 0.749056 0.650367 0.194821
60 1 0.75896 0.899009 0.0336793
860 1 0.0830924 0.879982 0.212752
1289 1 0.54134 0.654222 0.182585
1927 1 0.371361 0.835689 0.320571
919 1 0.827039 0.783037 0.0958957
1258 1 0.0802913 0.018405 0.923098
1764 1 0.399622 0.720972 0.109889
734 1 0.687933 0.750844 0.0329393
1505 1 0.776662 0.70817 0.139209
371 1 0.943237 0.97275 0.0913214
913 1 0.351582 0.95578 0.25703
565 1 0.6442 0.753788 0.202391
1077 1 0.657051 0.85268 0.917293
1687 1 0.71936 0.0163877 0.0371339
1712 1 0.297755 0.177623 0.00308201
1908 1 0.0250754 0.104585 0.284033
24 1 0.114934 0.0559033 0.0903631
154 1 0.504714 0.861014 0.112167
1451 1 0.61918 0.820387 0.854882
1997 1 0.955016 0.901064 0.956544
1305 1 0.509404 0.0391481 0.197496
775 1 0.678569 0.1315 0.124972
1108 1 0.130578 0.201164 0.273203
880 1 0.27379 0.958718 0.257815
963 1 0.541768 0.912026 0.357956
234 1 0.720852 0.181101 0.156998
989 1 0.761119 0.0108055 0.847932
1157 1 0.864595 0.163969 0.291983
990 1 0.0905986 0.258459 0.0819684
608 1 0.395727 0.230893 0.902668
223 1 0.0410382 0.10699 0.197226
859 1 0.438051 0.184629 0.158444
316 1 0.433393 0.0340608 0.027022
1111 1 0.588284 0.173805 0.939579
1503 1 0.777228 0.185636 0.0962731
116 1 0.745113 0.0762835 0.0631158
1660 1 0.926953 0.992946 0.998161
1502 1 0.197065 0.388869 0.069102
1980 1 0.178962 0.488001 0.144796
248 1 0.227534 0.185447 0.916866
1495 1 0.79093 0.178295 0.267804
1158 1 0.91253 0.12237 0.106621
666 1 0.868191 0.41107 0.215127
554 1 0.148579 0.342226 0.876864
1558 1 0.104736 0.170254 0.0604857
535 1 0.633281 0.281831 0.967584
1993 1 0.6207 0.102502 0.918545
759 1 0.863228 0.0276255 0.0923842
1740 1 0.583172 0.276288 0.337355
786 1 0.502486 0.147366 0.105275
421 1 0.712907 0.264852 0.193891
591 1 0.769134 0.318725 0.269243
1587 1 0.87796 0.636542 0.281413
307 1 0.336393 0.0495655 0.874089
1715 1 0.0446907 0.216436 0.340616
1754 1 0.964349 0.689236 0.355615
752 1 0.288006 0.306001 0.0657985
1476 1 0.163609 0.198328 0.169043
64 1 0.435116 0.274596 0.969196
1110 1 0.635204 0.318672 0.0431046
639 1 0.796516 0.553291 0.0111259
1036 1 0.903523 0.463924 0.193113
269 1 0.241434 0.317032 0.334507
1307 1 0.50414 0.52862 0.211745
1607 1 0.916928 0.447598 0.271719
2034 1 0.199613 0.729966 0.0487092
1144 1 0.163093 0.589432 0.242381
956 1 0.12296 0.513558 0.100384
679 1 0.020072 0.638734 0.192483
1176 1 0.301728 0.429774 0.192322
613 1 0.444358 0.552673 0.242698
2045 1 0.502258 0.378502 0.127109
331 1 0.646741 0.44789 0.158473
379 1 0.686108 0.60341 0.365514
1675 1 0.801676 0.569447 0.932038
645 1 0.0835225 0.541849 0.947085
1281 1 0.202642 0.660299 0.276761
1552 1 0.69266 0.506698 0.194779
1719 1 0.591654 0.496642 0.93187
1630 1 0.795963 0.670514 0.399629
897 1 0.200682 0.949949 0.269069
1249 1 0.350985 0.565817 0.218737
305 1 0.00607947 0.612487 0.0737782
631 1 0.764348 0.0177336 0.144292
239 1 0.0327609 0.694762 0.317597
206 1 0.570155 0.727897 0.903694
986 1 0.701625 0.571837 0.229948
1480 1 0.78707 0.798734 0.155127
1482 1 0.224938 0.805491 0.0357833
1735 1 0.2769 0.591783 0.168352
1606 1 0.823123 0.645865 0.170935
834 1 0.826189 0.522136 0.0885296
1985 1 0.273321 0.813228 0.242909
1317 1 0.666727 0.785165 0.141168
1306 1 0.618086 0.636312 0.296586
706 1 0.459041 0.976262 0.117252
35 1 0.517163 0.712689 0.219983
1038 1 0.878664 0.744663 0.152496
1074 1 0.697405 0.67673 0.107813
1397 1 0.735895 0.934648 0.963259
1386 1 0.177648 0.031822 0.322119
1970 1 0.374392 0.820772 0.550342
1364 1 0.181351 0.862783 0.320588
169 1 0.902384 0.821706 0.0962263
56 1 0.497142 0.817166 0.315958
187 1 0.456821 0.0577883 0.0876819
1436 1 0.37586 0.800039 0.134868
87 1 0.787517 0.984895 0.206432
1134 1 0.970742 0.0864713 0.22059
243 1 0.986358 0.879269 0.388247
669 1 0.972691 0.145869 0.136037
1645 1 0.319917 0.972296 0.327118
18 1 0.278229 0.904761 0.100122
1402 1 0.676626 0.948765 0.254457
998 1 0.0263451 0.908798 0.334283
400 1 0.481055 0.133946 0.220263
1062 1 0.576179 0.997545 0.137749
1728 1 0.606096 0.952521 0.183584
914 1 0.955937 0.913289 0.229638
1526 1 0.175153 0.294905 0.118136
1838 1 0.192901 0.260618 0.287376
406 1 0.555352 0.064147 0.314641
784 1 0.632366 0.129234 0.301457
1992 1 0.0101522 0.934018 0.271478
255 1 0.873468 0.0785929 0.151528
188 1 0.493078 0.227215 0.158473
2026 1 0.580435 0.185605 0.100533
1022 1 0.0334176 0.28018 0.371895
523 1 0.378615 0.155805 0.210897
1122 1 0.583443 0.236307 0.974526
1530 1 0.139582 0.110755 0.0367132
318 1 0.786752 0.113266 0.145618
1411 1 0.9063 0.492275 0.124167
323 1 0.960877 0.233338 0.205389
220 1 0.223517 0.168896 0.112477
1350 1 0.35435 0.281292 0.252674
766 1 0.984901 0.0983755 0.0704569
101 1 0.266807 0.34247 0.00653923
1589 1 0.255291 0.50759 0.247315
1294 1 0.355338 0.21031 0.965976
176 1 0.826523 0.243042 0.0990631
1847 1 0.685981 0.291525 0.128566
1268 1 0.873513 0.230732 0.0343827
1462 1 0.665946 0.535538 0.387157
1820 1 0.82009 0.618443 0.086502
1498 1 0.218307 0.308707 0.0663712
1884 1 0.675239 0.421275 0.223411
1668 1 0.589405 0.404269 0.274626
1320 1 0.00313748 0.331415 0.0718961
638 1 0.0752156 0.728577 0.212334
1439 1 1.00159 0.247186 0.269404
1015 1 0.567167 0.210682 0.38268
937 1 0.838808 0.487968 0.163422
896 1 0.787848 0.535202 0.213458
1137 1 0.000628375 0.664453 0.480089
1865 1 0.425717 0.506176 0.332977
1669 1 0.62366 0.42518 0.832443
858 1 0.892522 0.593464 0.510716
1642 1 0.373435 0.463772 0.000785316
210 1 0.73293 0.533014 0.367291
1853 1 0.196561 0.468245 0.0724069
1562 1 0.0249969 0.775554 0.187775
1680 1 0.753213 0.461491 0.436716
1903 1 0.0446777 0.636294 0.983987
1952 1 0.471245 0.619065 0.223599
58 1 0.610233 0.590068 0.231379
355 1 0.609297 0.489371 0.247763
85 1 0.092866 0.589092 0.200374
1576 1 0.370249 0.420687 0.167911
543 1 0.567867 0.639535 0.452025
385 1 0.847469 0.713684 0.43766
1876 1 0.733134 0.562543 0.162867
298 1 0.0734791 0.85506 0.132984
1143 1 0.100922 0.737169 0.385342
1743 1 0.444211 0.660614 0.32734
1405 1 0.387436 0.623607 0.113464
283 1 0.718616 0.577338 0.303767
136 1 0.897012 0.659951 0.384169
147 1 0.822281 0.656088 0.331983
792 1 0.176746 0.779442 0.409987
1988 1 0.65118 0.670881 0.365617
1114 1 0.797764 0.963215 0.337731
515 1 0.258216 0.9223 0.191452
1633 1 0.287635 0.822448 0.506821
333 1 0.213615 0.873526 0.067414
1726 1 0.198231 0.847071 0.498665
891 1 0.382501 0.625321 0.333479
690 1 0.499947 0.719602 0.0953862
1443 1 0.670512 0.955649 0.149814
38 1 0.964993 0.804804 0.399745
1355 1 0.960393 0.849038 0.325369
1802 1 0.214284 0.869796 0.604397
1468 1 0.427842 0.791714 0.337138
2000 1 0.717148 0.907201 0.119235
1075 1 0.931091 0.701169 0.137313
1949 1 0.783881 0.960951 0.0810313
703 1 0.137007 0.841548 0.424041
1637 1 0.376488 0.892273 0.266802
1571 1 0.556931 0.890704 0.0141813
1707 1 0.624232 0.0732284 0.246586
1374 1 0.681528 0.166063 0.240721
2039 1 0.246732 0.0174253 0.288593
1353 1 0.341738 0.989368 0.190768
1050 1 0.271123 0.0995335 0.0831537
1547 1 0.457026 0.725071 0.483602
1769 1 0.716813 0.983649 0.19998
2005 1 0.126212 0.035289 0.273062
1373 1 0.057403 0.978086 0.342888
1678 1 0.318608 0.16195 0.107424
1160 1 0.255138 0.170712 0.185832
315 1 0.309236 0.864854 0.166769
1563 1 0.432178 0.73337 0.177707
925 1 0.36875 0.0370143 0.132509
782 1 0.775944 0.110026 0.459997
459 1 0.917032 0.0252751 0.155128
1594 1 0.482412 0.254526 0.0435543
1501 1 0.382642 0.876599 0.196545
1729 1 0.467387 0.96991 0.323764
1882 1 0.196251 0.966849 0.340741
1479 1 0.803756 0.188936 0.0140328
259 1 0.618337 0.993924 0.26379
553 1 0.752732 0.915556 0.179477
671 1 0.891276 0.936076 0.123792
1091 1 0.515926 0.273538 0.301814
870 1 0.633646 0.339931 0.30676
960 1 0.639587 0.0611802 0.128069
1190 1 0.123372 0.275723 0.312452
712 1 0.845975 0.341933 0.200551
1870 1 0.247016 0.228637 0.312301
389 1 0.701718 0.159357 0.456674
1520 1 0.565144 0.994198 0.0452159
522 1 0.817007 0.0551155 0.196554
1818 1 0.921896 0.204846 0.265766
1201 1 0.100566 0.254678 0.230869
397 1 0.0455088 0.313333 0.268415
1070 1 0.232417 0.155625 0.270935
708 1 0.409495 0.232236 0.431567
1488 1 0.437836 0.371997 0.174354
833 1 0.743104 0.340636 0.346093
254 1 0.816612 0.245809 0.29325
984 1 0.134819 0.304407 0.0429836
1378 1 0.882762 0.32322 0.360257
1287 1 0.117501 0.386783 0.266208
1389 1 0.635901 0.265697 0.257419
99 1 0.837427 0.207371 0.225283
1083 1 0.927303 0.333922 0.0575551
1790 1 0.148239 0.428745 0.110941
1934 1 0.720305 0.12408 0.285336
1002 1 0.766998 0.305844 0.13692
1747 1 0.993738 0.580329 0.228493
1670 1 0.0248086 0.41024 0.0934868
2015 1 0.629989 0.19145 0.453467
73 1 0.496174 0.394515 0.420352
2004 1 0.604378 0.402685 0.448368
1621 1 0.836575 0.489051 0.994961
1763 1 0.666112 0.258298 0.328631
171 1 0.488723 0.629724 0.554976
1416 1 0.182294 0.673453 0.20209
780 1 0.294162 0.508923 0.178946
34 1 0.790145 0.39162 0.122422
1753 1 0.852604 0.4302 0.130906
370 1 0.05154 0.454648 0.272386
2033 1 0.076414 0.567525 0.394466
420 1 0.969659 0.484184 0.157316
1342 1 0.514891 0.434936 0.198755
1478 1 0.851431 0.588663 0.222195
737 1 0.826004 0.446383 0.428894
965 1 0.114456 0.68929 0.496591
1772 1 0.212045 0.530456 0.34025
1339 1 0.444168 0.446812 0.401831
893 1 0.446361 0.50941 0.454511
1204 1 0.120028 0.674419 0.362468
1677 1 0.988821 0.813816 0.132489
1535 1 0.33918 0.648891 0.278747
167 1 0.0368069 0.510514 0.163447
1118 1 0.66956 0.732702 0.494668
358 1 0.894937 0.770051 0.393066
1138 1 0.974884 0.683861 0.259417
1931 1 0.43845 0.575475 0.308188
835 1 0.26769 0.429193 0.120949
1822 1 0.642692 0.793951 0.277558
1577 1 0.675601 0.347733 0.363642
1051 1 0.865937 0.78219 0.321426
1199 1 0.819294 0.569814 0.156201
513 1 0.0546613 0.580821 0.119345
1178 1 0.0895961 0.832226 0.299027
469 1 0.254363 0.896551 0.439767
144 1 0.352324 0.752908 0.348696
94 1 0.596782 0.709847 0.476847
1210 1 0.0695517 0.933492 0.118707
1310 1 0.857058 0.995784 0.355594
1937 1 0.160937 0.738072 0.518702
1336 1 0.271942 0.654494 0.298575
1699 1 0.339465 0.687456 0.480758
419 1 0.884726 0.770799 0.219528
2012 1 0.889128 0.973205 0.418587
637 1 0.139808 0.809818 0.35312
654 1 0.458674 0.699293 0.254981
625 1 0.2772 0.909672 0.331541
2031 1 0.800197 0.750382 0.01686
364 1 0.953075 0.939913 0.377618
1661 1 0.921785 0.959399 0.185887
1126 1 0.203799 0.669903 0.522562
107 1 0.630478 0.563894 0.00554546
1357 1 0.683112 0.848606 0.430885
1674 1 0.54696 0.827013 0.164638
568 1 0.0231054 0.998488 0.197503
2019 1 0.0144504 0.710984 0.146334
325 1 0.648855 0.886502 0.121817
1732 1 0.587528 0.718502 0.308898
284 1 0.452821 0.827703 0.165232
1012 1 0.997441 0.262769 0.915438
1724 1 0.285245 0.077062 0.946125
736 1 0.562774 0.914851 0.147794
334 1 0.238136 0.0994868 0.318455
1422 1 0.52663 0.946217 0.090082
222 1 0.641712 0.824139 0.197389
1867 1 0.955936 0.99251 0.237865
1248 1 0.550062 0.980654 0.223832
571 1 0.762369 0.991859 0.281094
662 1 0.76808 0.858536 0.222321
903 1 0.0735952 0.990305 0.560379
427 1 0.136065 0.0606591 0.371707
1308 1 0.081233 0.933439 0.408347
692 1 0.385259 0.318573 0.338571
1536 1 0.548326 0.184874 0.195799
423 1 0.0652881 0.108096 0.460857
683 1 0.178546 0.200631 0.415006
644 1 0.114846 0.218166 0.354327
1939 1 0.182736 0.410574 0.187704
89 1 0.144991 0.151993 0.228022
194 1 0.497371 0.230726 0.232001
1284 1 0.816713 0.108593 0.268126
918 1 0.946005 0.217856 0.395119
1115 1 0.105349 0.30198 0.376433
184 1 0.182625 0.50276 0.278319
218 1 0.434735 0.41211 0.0850169
987 1 0.793159 0.0848883 0.338322
2047 1 0.307625 0.185022 0.231639
1125 1 0.349648 0.681401 0.364644
1092 1 0.523363 0.134065 0.356819
815 1 0.610289 0.081132 0.471732
1859 1 0.827474 0.127597 0.199948
702 1 0.93839 0.426608 0.108798
1523 1 0.972967 0.424271 0.995603
1883 1 0.760058 0.279705 0.0430684
1560 1 0.210403 0.391773 0.270945
785 1 0.526718 0.0219239 0.466615
492 1 0.601418 0.46264 0.312207
1031 1 0.72301 0.344046 0.179668
1720 1 0.948183 0.275742 0.145284
322 1 0.464568 0.312855 0.211962
460 1 0.74812 0.389821 0.222542
634 1 0.762214 0.384021 0.44871
854 1 0.252247 0.398321 0.463804
135 1 0.986661 0.492814 0.327463
1741 1 0.425469 0.290534 0.381213
797 1 0.795733 0.454517 0.0761334
367 1 0.649522 0.763113 0.435774
197 1 0.845606 0.455322 0.317634
356 1 0.134493 0.63653 0.294067
865 1 0.34208 0.576729 0.290484
674 1 0.312039 0.469096 0.469726
1046 1 0.314204 0.61171 0.618614
770 1 0.840956 0.478374 0.238013
1008 1 0.938957 0.575447 0.415315
114 1 0.483667 0.519985 0.290622
958 1 0.372899 0.557027 0.349114
1513 1 0.605891 0.568258 0.330793
1623 1 0.693376 0.475908 0.279115
1522 1 0.781978 0.735734 0.445744
1098 1 0.709297 0.424044 0.138503
2038 1 0.788322 0.421983 0.010259
1758 1 0.0898586 0.707307 0.133943
642 1 0.341567 0.743036 0.231854
614 1 0.287166 0.724823 0.335293
1229 1 0.51152 0.764227 0.160267
231 1 0.649859 0.552504 0.161148
249 1 0.704273 0.714019 0.18379
23 1 0.840828 0.765816 0.492122
1231 1 0.217554 0.783062 0.56513
1916 1 0.0591115 0.772883 0.316362
2023 1 0.947749 0.761225 0.184063
97 1 0.928563 0.81804 0.261943
1179 1 0.355199 0.553238 0.461091
876 1 0.143878 0.625162 0.496795
1409 1 0.426812 0.870964 0.378945
1620 1 0.755575 0.399272 0.300322
972 1 0.917213 0.604549 0.33758
149 1 0.925064 0.847246 0.182974
93 1 0.445988 0.765213 0.276523
482 1 0.257311 0.713791 0.586554
1365 1 0.102249 0.746672 0.581206
1039 1 0.042 0.705358 0.424588
542 1 0.755408 0.565945 0.0936348
92 1 0.735017 0.780812 0.202053
42 1 0.249319 0.774449 0.374611
808 1 0.341193 0.105256 0.423103
108 1 0.244811 0.735788 0.279008
1297 1 0.560381 0.797212 0.256053
828 1 0.640109 0.951438 0.319949
1021 1 0.891987 0.843028 0.352782
1123 1 0.406911 0.146258 0.319418
796 1 0.762524 0.801114 0.385354
16 1 0.176845 0.273735 0.370117
874 1 0.238032 0.851748 0.389033
1225 1 0.535278 0.897879 0.279207
624 1 0.611432 0.0773326 0.374804
1864 1 0.864214 0.709615 0.345775
667 1 0.178354 0.991771 0.409869
1913 1 0.19992 0.0582123 0.255504
970 1 0.29483 0.130723 0.285218
1570 1 0.459425 0.93725 0.387029
838 1 0.391702 0.979408 0.0710692
1816 1 0.122593 0.15486 0.38658
979 1 0.457871 0.142179 0.383888
1843 1 0.319064 0.221612 0.444713
1857 1 0.341092 0.840978 0.0793844
675 1 0.573975 0.875259 0.467939
478 1 0.15995 0.28933 0.207923
502 1 0.449002 0.0452842 0.157596
1356 1 0.456068 0.127788 0.0533155
1489 1 0.683612 0.0771687 0.464532
280 1 0.201701 0.117268 0.21126
362 1 0.128198 0.954968 0.320247
908 1 0.297827 0.20595 0.369415
450 1 0.758636 0.0775277 0.246407
1016 1 0.929234 0.0162023 0.366513
1081 1 0.289292 0.325273 0.253994
514 1 0.251326 0.00929712 0.365039
1640 1 0.538545 0.1882 0.310443
388 1 0.664501 0.903244 0.191018
1996 1 0.990976 0.166275 0.326315
341 1 0.202231 0.0324718 0.113599
758 1 0.226804 1.00073 0.207989
509 1 0.526663 0.0317483 0.381466
138 1 0.785065 0.258279 0.233629
1029 1 0.504197 0.292383 0.512159
1459 1 0.839671 0.30279 0.263482
59 1 0.994819 0.399879 0.34284
581 1 0.170326 0.327073 0.283151
590 1 0.405785 0.219991 0.328694
763 1 0.522445 0.429231 0.288161
1445 1 0.475115 0.0759356 0.357448
439 1 0.720501 0.206015 0.293834
145 1 0.824245 0.377856 0.265954
1303 1 0.0261563 0.543484 0.300719
1649 1 0.0542846 0.380782 0.223872
748 1 0.0559033 0.358998 0.390901
1278 1 0.112472 0.519417 0.2121
721 1 0.378602 0.342436 0.205915
883 1 0.776957 0.259553 0.512769
1080 1 0.6832 0.707869 0.309519
53 1 0.890612 0.313894 0.155233
257 1 0.00240144 0.512889 0.246765
1398 1 0.695643 0.361496 0.26732
480 1 0.293967 0.762332 0.628008
579 1 0.0725586 0.63417 0.430807
836 1 0.222442 0.614853 0.347134
569 1 0.996057 0.583135 0.37635
1273 1 0.0214457 0.553778 0.438424
774 1 0.110834 0.721091 0.303124
1917 1 0.415623 0.629676 0.269683
1515 1 0.262869 0.595116 0.26177
79 1 0.636745 0.621548 0.451848
1128 1 0.366159 0.509543 0.277376
214 1 0.723225 0.747783 0.263282
978 1 0.765807 0.595144 0.356329
2024 1 0.285273 0.526356 0.304964
1634 1 0.695512 0.890822 0.36408
104 1 0.770203 0.513837 0.521368
714 1 0.414254 0.668635 0.422048
1241 1 0.386003 0.740491 0.415309
1399 1 0.551619 0.790391 0.359998
129 1 0.563756 0.841053 0.66142
178 1 0.679944 0.807841 0.360883
484 1 0.749877 0.890098 0.314639
186 1 0.834853 0.550134 0.496487
1854 1 0.0565694 0.802332 0.403493
821 1 0.502687 0.894715 0.430155
65 1 0.714866 0.728188 0.386521
123 1 0.293369 0.833908 0.343548
17 1 0.329137 0.884695 0.372627
993 1 0.575654 0.851707 0.321928
1437 1 0.58589 0.885642 0.20829
1133 1 0.847241 0.846761 0.210616
245 1 0.0895614 0.00833752 0.397482
377 1 0.919313 0.897658 0.0505673
88 1 0.331392 0.00571066 0.50828
636 1 0.706541 0.81507 0.298868
1224 1 0.111976 0.842395 0.63818
741 1 0.484932 0.0408832 0.521265
646 1 0.458348 0.00643973 0.261567
1879 1 0.486906 0.748492 0.389044
1991 1 0.538833 0.000785036 0.288661
80 1 0.637854 0.870722 0.580665
1575 1 0.914855 0.897631 0.301605
319 1 0.441962 0.924728 0.258985
487 1 0.399312 0.0224407 0.311722
882 1 0.100312 0.111902 0.525634
839 1 0.971943 0.763571 0.334857
557 1 0.243584 0.248261 0.404588
434 1 0.607187 0.156762 0.398139
718 1 0.435655 0.838924 0.247882
1441 1 0.591518 0.136555 0.237331
612 1 0.690702 0.0947831 0.223405
266 1 0.701666 0.00643391 0.592774
181 1 0.851292 0.918667 0.323092
1717 1 0.17546 0.1161 0.131936
262 1 0.612905 0.164073 0.575145
1362 1 0.688278 0.88088 0.249653
1324 1 0.939591 0.103868 0.356658
153 1 0.357902 0.0383438 0.0510856
1279 1 0.380896 0.167179 0.401808
1180 1 0.49747 0.202218 0.375597
1643 1 0.764503 0.056758 0.602129
657 1 0.0805766 0.351797 0.324492
417 1 0.278812 0.375899 0.318144
1792 1 0.237791 0.235372 0.13674
250 1 0.685248 0.275059 0.499464
489 1 0.672094 0.0699336 0.32865
1465 1 0.35863 0.0894778 0.273721
1557 1 0.941307 0.131797 0.287857
1647 1 0.652052 0.208341 0.159641
82 1 0.0122267 0.231939 0.434244
1688 1 0.424485 0.192077 0.265012
1839 1 0.246736 0.35444 0.633088
278 1 0.510063 0.351436 0.274184
863 1 0.736049 0.0406174 0.339048
348 1 0.899629 0.27483 0.306675
1346 1 0.818595 0.338028 0.330584
1788 1 0.203407 0.107765 0.555578
1734 1 0.549779 0.296336 0.396095
1203 1 0.194326 0.40687 0.366311
651 1 0.560565 0.555132 0.26286
843 1 0.602945 0.336505 0.2427
1078 1 0.888636 0.541852 0.370435
1166 1 0.982045 0.599713 0.30168
412 1 0.133423 0.576451 0.341092
586 1 0.985984 0.439981 0.228782
1283 1 0.380703 0.489916 0.446647
1946 1 0.777389 0.455392 0.211482
541 1 0.98105 0.380738 0.267724
1624 1 0.937515 0.538652 0.282432
1553 1 0.256357 0.457621 0.299373
1542 1 0.507403 0.601193 0.35268
1894 1 0.364007 0.436469 0.618912
1011 1 0.658909 0.493993 0.057187
1 1 0.941995 0.395145 0.524777
1893 1 0.838764 0.592521 0.351295
1117 1 0.164185 0.638068 0.40939
1335 1 0.30652 0.288293 0.320165
2027 1 0.2732 0.363023 0.190675
132 1 0.182544 0.736142 0.23874
1592 1 0.362489 0.61267 0.408331
1236 1 0.752705 0.683171 0.348849
716 1 0.792825 0.588346 0.284589
532 1 0.438204 0.797886 0.430813
869 1 0.423943 0.553619 0.396862
381 1 0.611469 0.56628 0.490694
862 1 0.613783 0.551923 0.635084
15 1 0.95967 0.450379 0.481256
757 1 0.942321 0.932019 0.483442
1930 1 0.63358 0.819274 0.497534
1227 1 0.0580421 0.618168 0.342534
1861 1 0.478192 0.886552 0.327323
436 1 0.575003 0.597314 0.583457
576 1 0.501281 0.463941 0.449009
1710 1 0.562491 0.622049 0.517591
508 1 0.509701 0.575747 0.450938
1239 1 0.794946 0.598884 0.421492
1066 1 0.980304 0.816188 0.605388
877 1 0.256313 0.640335 0.577488
1151 1 0.370977 0.945876 0.498925
1960 1 0.774516 0.621271 0.505938
1084 1 0.934518 0.80037 0.486203
593 1 0.0819565 0.676543 0.604066
538 1 0.64302 0.872179 0.315179
1447 1 0.0510436 0.910062 0.570916
521 1 0.813651 0.80643 0.273948
1010 1 0.680786 0.934361 0.44542
1497 1 0.207275 0.0437651 0.475204
1768 1 0.228761 0.762056 0.464711
96 1 0.605505 0.921362 0.263982
546 1 0.406008 0.989648 0.578136
1559 1 0.136848 0.927476 0.212653
901 1 0.158998 0.895819 0.462859
165 1 0.606064 0.998139 0.408226
1806 1 0.499231 0.882626 0.219157
1730 1 0.839012 0.920589 0.18536
378 1 0.719669 0.783853 0.451806
731 1 0.291015 0.117025 0.366282
200 1 0.24381 0.00422997 0.533421
441 1 0.202493 0.130172 0.438478
1797 1 0.447013 0.180146 0.463517
1321 1 0.227289 0.17358 0.363305
1499 1 0.308731 0.1025 0.154222
1858 1 0.00272884 0.128835 0.604906
1470 1 0.910184 0.964705 0.31678
559 1 0.0743683 0.253275 0.465047
1060 1 0.445169 0.905787 0.170626
46 1 0.0324828 0.13307 0.400813
1375 1 0.110821 0.80485 0.544
491 1 0.933989 0.051751 0.294129
800 1 0.16194 0.123903 0.496865
1116 1 0.364226 0.0847972 0.625105
1154 1 0.714224 0.0362615 0.672758
977 1 0.205494 0.0829022 0.384664
1889 1 0.2212 0.200259 0.483778
745 1 0.414671 0.08692 0.409512
198 1 0.68032 0.943601 0.527596
207 1 0.809146 0.228649 0.572839
1483 1 0.969545 0.290996 0.426359
1492 1 0.139579 0.304628 0.437282
2035 1 0.459542 0.326484 0.465701
293 1 0.568361 0.265907 0.513466
1286 1 0.934846 0.0196243 0.444983
26 1 0.819532 0.0980201 0.522662
1713 1 0.115254 0.300337 0.532174
1922 1 0.900119 0.366316 0.271973
133 1 0.481455 0.0761343 0.285447
1001 1 0.139217 0.354419 0.176947
1911 1 0.565634 0.226055 0.454085
1194 1 0.712566 0.117098 0.52838
1469 1 0.685009 0.156381 0.603838