ITEM: TIMESTEP
100000
ITEM: NUMBER OF ATOMS
2048
ITEM: BOX BOUNDS pp pp pp
0.0000000000000000e+00 1.1950412657485773e+01
0.0000000000000000e+00 1.1950412657485773e+01
0.0000000000000000e+00 1.1950412657485773e+01
ITEM: ATOMS id type xs ys zs
17 1 0.502816 0.984388 0.0089603
313 1 0.754031 0.0535904 0.066007
29 1 0.865198 0.00166738 0.000730974
12 1 0.243077 0.0568359 0.06113
10 1 0.309987 0.0631066 0.0126926
63 1 0.877169 0.123977 0.00650725
30 1 0.926414 0.0535112 0.997433
37 1 0.111992 0.125565 0.994203
57 1 0.757366 0.121093 0.00432646
34 1 0.0501186 0.178489 0.00378824
38 1 0.189068 0.180632 0.998539
44 1 0.249863 0.190152 0.053669
46 1 0.443932 0.194957 0.00644929
59 1 0.807963 0.194436 0.00353645
62 1 0.926839 0.190046 0.989151
65 1 0.995669 0.257509 0.0063203
73 1 0.244353 0.254366 0.996003
77 1 0.373402 0.256193 0.00707188
81 1 0.503607 0.245809 0.00175092
70 1 0.17832 0.303665 0.99111
74 1 0.31005 0.309764 0.0070495
1875 1 0.555125 0.30902 0.00591654
86 1 0.691742 0.317682 0.00407833
93 1 0.810578 0.320096 0.00212005
123 1 0.875838 0.314514 0.0498916
94 1 0.932901 0.314741 0.989709
101 1 0.116003 0.37487 0.00571576
109 1 0.379253 0.363669 0.998516
113 1 0.493141 0.375273 0.993868
117 1 0.619986 0.375971 0.996454
125 1 0.88376 0.391346 0.992234
127 1 0.926893 0.387445 0.0567075
102 1 0.168778 0.433609 0.998885
110 1 0.422232 0.437507 0.00419079
114 1 0.554241 0.425687 0.00577829
129 1 0.0125609 0.496381 0.00318617
141 1 0.368105 0.512225 0.00390674
122 1 0.810936 0.436301 0.00714459
126 1 0.950784 0.437777 0.996078
133 1 0.128564 0.507862 0.00965943
143 1 0.440569 0.497061 0.0617767
151 1 0.681063 0.51329 0.0532138
157 1 0.867305 0.501062 0.994206
1931 1 0.316263 0.579075 0.00438566
152 1 0.625067 0.573705 0.0623344
154 1 0.820699 0.565351 0.993316
158 1 0.937433 0.559693 0.00832053
169 1 0.249649 0.6352 0.00210856
173 1 0.377944 0.62301 0.993763
177 1 0.500579 0.630997 0.994155
185 1 0.74378 0.62741 0.987288
164 1 0.991876 0.682481 0.0669661
180 1 0.495598 0.693176 0.0619478
190 1 0.942824 0.700508 0.995936
205 1 0.376567 0.753082 0.00133209
215 1 0.749173 0.749751 0.996621
221 1 0.883439 0.750162 0.993167
193 1 0.00532964 0.754434 0.987676
194 1 0.0576995 0.81931 0.00428985
206 1 0.441579 0.807995 0.00499459
210 1 0.564252 0.828031 0.987363
245 1 0.708425 0.822245 0.994693
218 1 0.823331 0.80822 0.995554
233 1 0.24217 0.877185 0.00482017
2029 1 0.380548 0.865672 0.995398
241 1 0.500328 0.884216 0.998187
243 1 0.571944 0.872925 0.069324
248 1 0.633984 0.877175 0.98915
228 1 0.00376546 0.950927 0.0639954
237 1 0.318245 0.928503 7.95097e-05
250 1 0.807118 0.940492 0.0071717
256 1 0.876209 0.94014 0.0771163
21 1 0.628701 0.993941 0.0126912
8 1 0.120864 0.0643063 0.0618967
19 1 0.557928 0.993905 0.0674685
27 1 0.822233 0.999159 0.07322
32 1 0.87883 0.0675079 0.0650844
4 1 0.980043 0.070185 0.0757948
16 1 0.371613 0.0636586 0.0783775
20 1 0.492542 0.070068 0.0650717
24 1 0.628691 0.0630596 0.0673411
60 1 0.809599 0.121393 0.0658238
35 1 0.0485295 0.118531 0.0695668
39 1 0.179653 0.119552 0.0523636
43 1 0.314577 0.122935 0.0666457
47 1 0.438135 0.136599 0.0682387
51 1 0.571411 0.122677 0.0584089
55 1 0.692529 0.130709 0.0669272
317 1 0.924765 0.143276 0.0643735
36 1 0.995251 0.193906 0.0653861
40 1 0.112269 0.169282 0.0653806
48 1 0.3783 0.186524 0.0524479
302 1 0.502718 0.186181 0.0583767
56 1 0.631897 0.191208 0.0624933
90 1 0.75081 0.185244 0.0701456
64 1 0.864471 0.191688 0.0603809
67 1 0.0501482 0.254189 0.0686486
71 1 0.189976 0.253753 0.0544898
75 1 0.320053 0.234424 0.0648376
79 1 0.428238 0.249389 0.0697914
83 1 0.574046 0.248924 0.0574212
87 1 0.696108 0.251158 0.0567949
91 1 0.805937 0.259972 0.0582521
95 1 0.928094 0.250535 0.0501262
68 1 0.997966 0.322019 0.0727088
72 1 0.126847 0.309105 0.0574284
76 1 0.239813 0.316562 0.0508919
80 1 0.377747 0.314695 0.0615399
84 1 0.496719 0.313452 0.0669535
88 1 0.62001 0.323742 0.0606905
89 1 0.74657 0.324884 0.0732386
99 1 0.0670393 0.384395 0.0718274
103 1 0.176378 0.368609 0.0656037
107 1 0.308279 0.38245 0.0626642
111 1 0.440559 0.369735 0.0553396
82 1 0.554638 0.372216 0.0631662
119 1 0.685063 0.375385 0.0630944
92 1 0.81999 0.374429 0.064802
381 1 0.875531 0.365288 0.124634
100 1 0.00111792 0.442683 0.0727886
104 1 0.127035 0.440497 0.0755667
108 1 0.24788 0.442946 0.0600224
112 1 0.371312 0.442523 0.0635609
120 1 0.624915 0.434185 0.0613523
124 1 0.749954 0.415388 0.0720414
131 1 0.066213 0.504299 0.0736718
139 1 0.30566 0.510308 0.0733958
116 1 0.49126 0.430696 0.0568542
155 1 0.802741 0.500082 0.0704162
128 1 0.869329 0.443237 0.0621343
159 1 0.935038 0.493488 0.0592202
135 1 0.192056 0.504801 0.0599709
140 1 0.253657 0.568023 0.058226
147 1 0.557255 0.494987 0.0618824
132 1 0.997149 0.558455 0.0673331
136 1 0.128578 0.566371 0.0692607
144 1 0.374946 0.577617 0.0623199
148 1 0.503836 0.561664 0.0577054
409 1 0.756166 0.567134 0.0545685
160 1 0.871244 0.551216 0.0665725
163 1 0.0651847 0.61679 0.0583873
167 1 0.195455 0.631287 0.0644458
171 1 0.305663 0.629748 0.0674503
175 1 0.446166 0.628262 0.0606488
434 1 0.561065 0.631877 0.0595751
181 1 0.692823 0.627806 0.0600809
187 1 0.818975 0.627253 0.0530858
191 1 0.93943 0.618167 0.0662188
168 1 0.117689 0.688329 0.0685368
172 1 0.261365 0.69771 0.0511587
176 1 0.372444 0.690909 0.0565009
179 1 0.62515 0.688916 0.0523192
188 1 0.753835 0.683563 0.0486642
192 1 0.884385 0.687841 0.0652287
195 1 0.0523159 0.740651 0.0604401
199 1 0.182572 0.745156 0.060286
203 1 0.31467 0.758887 0.0591288
207 1 0.438186 0.748108 0.0649901
211 1 0.563389 0.745893 0.0567851
178 1 0.690335 0.767338 0.0519572
219 1 0.810776 0.739526 0.0570329
223 1 0.938985 0.753945 0.0610902
196 1 0.996879 0.819511 0.0652831
200 1 0.113518 0.806314 0.0600037
204 1 0.250833 0.809864 0.0585342
208 1 0.377715 0.817727 0.0574471
212 1 0.511657 0.821171 0.0556416
216 1 0.620126 0.811656 0.0454537
220 1 0.767916 0.810348 0.057485
224 1 0.866296 0.797365 0.0727815
227 1 0.0500829 0.883705 0.0544864
231 1 0.177579 0.87818 0.0622717
235 1 0.317301 0.866594 0.0531136
239 1 0.438916 0.878469 0.048652
247 1 0.684786 0.867591 0.0561732
251 1 0.820452 0.875448 0.0662691
255 1 0.936688 0.875493 0.0732416
232 1 0.110998 0.935663 0.0566104
236 1 0.256277 0.932981 0.0648859
234 1 0.378507 0.928777 0.0543785
244 1 0.505039 0.92812 0.0744942
501 1 0.631857 0.932565 0.0736524
252 1 0.749693 0.936503 0.0687365
3 1 0.061026 0.00758457 0.0608013
7 1 0.17908 0.995612 0.0523698
11 1 0.303297 0.997742 0.0710078
15 1 0.432556 0.00293223 0.0678228
23 1 0.686894 0.992994 0.0681443
31 1 0.939865 0.996731 0.0735003
262 1 0.188093 0.0574901 0.120451
273 1 0.4958 0.00285931 0.122192
278 1 0.688827 0.0637878 0.133946
286 1 0.931419 0.0653743 0.137911
258 1 0.0622974 0.0601352 0.123068
266 1 0.313867 0.0477653 0.134878
270 1 0.437222 0.0681487 0.125486
274 1 0.561529 0.0591472 0.116579
282 1 0.816491 0.0631624 0.132371
293 1 0.132392 0.121795 0.122032
297 1 0.24642 0.110421 0.127896
301 1 0.372378 0.127082 0.127765
305 1 0.500002 0.128444 0.122161
309 1 0.62804 0.125502 0.122713
28 1 0.750268 0.127997 0.124501
320 1 0.87209 0.143096 0.131076
289 1 0.990501 0.139815 0.123953
290 1 0.0617593 0.192059 0.136178
294 1 0.196337 0.174813 0.122072
298 1 0.310204 0.179373 0.130187
308 1 0.431699 0.189734 0.129994
306 1 0.564837 0.184821 0.113861
310 1 0.688664 0.188344 0.128516
314 1 0.811931 0.206315 0.123753
318 1 0.927821 0.200743 0.127311
325 1 0.127138 0.238926 0.0943637
329 1 0.253114 0.25308 0.113817
333 1 0.366641 0.240046 0.127417
337 1 0.49288 0.250022 0.121323
341 1 0.622212 0.249682 0.122965
345 1 0.749065 0.252394 0.132608
96 1 0.875439 0.25858 0.112598
321 1 0.995217 0.254705 0.125631
322 1 0.0570897 0.312363 0.127551
326 1 0.179576 0.3107 0.124268
330 1 0.312745 0.315397 0.114379
334 1 0.43183 0.32278 0.12296
338 1 0.554181 0.321034 0.134134
342 1 0.686503 0.323827 0.124661
352 1 0.811855 0.310878 0.119924
350 1 0.938094 0.310899 0.118855
353 1 0.980128 0.378434 0.126001
357 1 0.126916 0.380793 0.133633
361 1 0.240622 0.367114 0.119779
365 1 0.372058 0.381405 0.113434
369 1 0.499886 0.37838 0.12731
115 1 0.62765 0.383286 0.129105
377 1 0.766095 0.374868 0.136563
354 1 0.0639051 0.450971 0.131889
358 1 0.186274 0.435759 0.13835
362 1 0.311283 0.44081 0.120516
366 1 0.427651 0.448302 0.124597
370 1 0.566397 0.433389 0.120127
374 1 0.688985 0.446988 0.12542
378 1 0.823367 0.429843 0.127772
382 1 0.921862 0.439388 0.122746
389 1 0.132786 0.508707 0.129645
393 1 0.241458 0.5007 0.132504
397 1 0.370211 0.507806 0.124065
385 1 0.000238086 0.49967 0.137735
401 1 0.495201 0.507483 0.125483
405 1 0.623622 0.498212 0.114386
411 1 0.756182 0.495407 0.134384
413 1 0.862306 0.498926 0.126922
417 1 0.00647506 0.622828 0.125609
386 1 0.0704298 0.56915 0.122772
390 1 0.193522 0.566744 0.119673
394 1 0.309002 0.564384 0.132078
398 1 0.427908 0.561676 0.138098
402 1 0.557538 0.560088 0.129652
406 1 0.69661 0.563892 0.122676
410 1 0.807223 0.57071 0.117022
414 1 0.941467 0.562869 0.124605
421 1 0.131904 0.629303 0.137268
425 1 0.251296 0.633259 0.139756
429 1 0.369496 0.617674 0.128298
433 1 0.506222 0.622792 0.116796
437 1 0.627469 0.630113 0.121571
441 1 0.754253 0.638608 0.118417
445 1 0.878033 0.616048 0.127754
418 1 0.0639918 0.682482 0.125728
422 1 0.187125 0.691927 0.117552
426 1 0.309898 0.691538 0.125926
430 1 0.427999 0.68717 0.119669
440 1 0.567105 0.692284 0.123006
183 1 0.674288 0.695499 0.116651
442 1 0.823998 0.685746 0.122785
446 1 0.932768 0.677615 0.130335
449 1 0.993949 0.752977 0.117171
453 1 0.126516 0.750911 0.120305
457 1 0.245182 0.750823 0.123987
461 1 0.369112 0.758593 0.114337
465 1 0.496904 0.759886 0.119113
184 1 0.616914 0.750832 0.121426
473 1 0.74786 0.736651 0.120146
477 1 0.886974 0.744018 0.124847
450 1 0.0640129 0.796546 0.12361
454 1 0.185009 0.807121 0.118061
458 1 0.308771 0.818384 0.119836
462 1 0.444697 0.825819 0.111653
466 1 0.566332 0.812688 0.127832
470 1 0.713098 0.812047 0.118796
474 1 0.804317 0.7954 0.128882
478 1 0.929373 0.81156 0.121611
481 1 0.00727333 0.888864 0.123729
485 1 0.123605 0.870453 0.118621
489 1 0.245741 0.868598 0.118172
493 1 0.377649 0.871339 0.1203
497 1 0.506399 0.869094 0.136438
469 1 0.632929 0.861165 0.117056
505 1 0.762582 0.873762 0.130273
509 1 0.875057 0.871122 0.128135
482 1 0.0662351 0.945089 0.128565
490 1 0.319157 0.92118 0.118605
494 1 0.446661 0.927865 0.134089
498 1 0.565135 0.930538 0.130412
502 1 0.687574 0.920639 0.131924
506 1 0.816885 0.936691 0.131548
510 1 0.938918 0.941977 0.13192
261 1 0.123914 0.00148201 0.122419
486 1 0.171782 0.93462 0.117782
265 1 0.236032 0.988669 0.130844
269 1 0.370828 0.985383 0.12043
277 1 0.626609 0.996375 0.12283
281 1 0.742953 0.988909 0.135111
285 1 0.876452 0.993497 0.140861
257 1 0.992841 0.0055493 0.134602
263 1 0.181728 0.998894 0.188786
492 1 0.302829 0.98383 0.177257
240 1 0.434873 0.993284 0.186546
280 1 0.616468 0.0647275 0.185148
284 1 0.755125 0.0657831 0.191964
288 1 0.872964 0.0604395 0.196245
287 1 0.931749 0.9987 0.196038
264 1 0.124844 0.0599198 0.178785
268 1 0.254309 0.0577986 0.195562
272 1 0.376664 0.0582099 0.194568
276 1 0.491415 0.064203 0.182908
260 1 0.992537 0.0564344 0.201402
291 1 0.0658528 0.125011 0.186971
295 1 0.187768 0.120292 0.184618
299 1 0.31666 0.117373 0.191777
303 1 0.430349 0.117944 0.18751
307 1 0.551388 0.120825 0.181356
311 1 0.684662 0.12755 0.185999
315 1 0.808358 0.131395 0.187303
319 1 0.928487 0.131505 0.198704
296 1 0.125635 0.182144 0.181834
300 1 0.249142 0.173408 0.191136
304 1 0.379675 0.184389 0.188176
562 1 0.500378 0.184153 0.185743
312 1 0.617712 0.192559 0.179936
316 1 0.749692 0.188261 0.182074
349 1 0.878462 0.202001 0.187904
292 1 0.00515711 0.19454 0.194854
323 1 0.0631359 0.256629 0.182774
327 1 0.178481 0.23895 0.173378
331 1 0.313221 0.253262 0.189949
335 1 0.447997 0.24486 0.189577
339 1 0.556157 0.247821 0.168941
343 1 0.682943 0.252603 0.178952
601 1 0.810856 0.261988 0.183513
351 1 0.940828 0.251178 0.191833
324 1 0.993873 0.315086 0.181724
328 1 0.120319 0.317308 0.18593
332 1 0.249109 0.306255 0.180658
336 1 0.38115 0.299992 0.183267
340 1 0.492971 0.314874 0.188026
375 1 0.635807 0.323608 0.182396
346 1 0.739174 0.315766 0.189402
347 1 0.874069 0.318044 0.189872
355 1 0.0709228 0.380353 0.190607
359 1 0.187411 0.365364 0.186018
363 1 0.303319 0.368011 0.179992
367 1 0.430232 0.377284 0.179991
371 1 0.559437 0.382625 0.185274
344 1 0.69178 0.38038 0.190656
602 1 0.810771 0.369709 0.203978
383 1 0.936856 0.372958 0.204038
356 1 0.996613 0.428588 0.188327
360 1 0.124606 0.444599 0.192363
364 1 0.245598 0.430412 0.194782
368 1 0.370456 0.439881 0.183512
372 1 0.488795 0.433992 0.180178
376 1 0.620235 0.435043 0.19265
380 1 0.759892 0.431969 0.190993
384 1 0.880746 0.433691 0.193546
391 1 0.185754 0.51492 0.198131
395 1 0.310997 0.494568 0.179662
387 1 0.0620137 0.497809 0.199958
396 1 0.255165 0.56836 0.196185
400 1 0.365907 0.551924 0.192467
399 1 0.439274 0.503475 0.18976
403 1 0.572773 0.498897 0.194757
407 1 0.68257 0.501975 0.18685
669 1 0.819374 0.486322 0.192433
415 1 0.936813 0.491662 0.190482
388 1 0.0111742 0.566173 0.191297
392 1 0.124967 0.561769 0.190499
404 1 0.4945 0.57014 0.193616
408 1 0.62788 0.562166 0.175916
412 1 0.754986 0.55332 0.184264
416 1 0.87917 0.553131 0.18533
419 1 0.0699077 0.626714 0.193019
423 1 0.183753 0.616398 0.202677
427 1 0.319148 0.624875 0.192344
431 1 0.433991 0.629969 0.185902
435 1 0.553647 0.627737 0.188878
439 1 0.699654 0.637921 0.186925
443 1 0.814995 0.620049 0.178419
447 1 0.938333 0.616014 0.190089
420 1 0.993209 0.674326 0.191797
424 1 0.124115 0.69391 0.187626
428 1 0.264517 0.697368 0.19122
432 1 0.367347 0.694992 0.197598
436 1 0.489797 0.69017 0.17873
693 1 0.615653 0.685183 0.192326
444 1 0.757922 0.695225 0.196646
448 1 0.871015 0.684639 0.189927
451 1 0.0516128 0.729923 0.189808
455 1 0.193933 0.751398 0.196967
459 1 0.314958 0.757796 0.181783
463 1 0.428683 0.757981 0.16964
438 1 0.55434 0.748577 0.201474
471 1 0.683717 0.741669 0.189225
475 1 0.823439 0.748458 0.194397
479 1 0.939099 0.748645 0.1874
452 1 0.991018 0.812009 0.17412
456 1 0.12653 0.799294 0.184598
460 1 0.242839 0.818668 0.189043
464 1 0.364809 0.818728 0.179487
468 1 0.488931 0.80788 0.190329
472 1 0.626714 0.808373 0.194322
476 1 0.755883 0.791003 0.204383
480 1 0.870934 0.811158 0.188072
741 1 0.060802 0.8564 0.174734
710 1 0.174179 0.858765 0.183613
496 1 0.305679 0.874542 0.19062
495 1 0.432087 0.873975 0.193546
499 1 0.566142 0.859879 0.196243
503 1 0.686314 0.861866 0.195734
507 1 0.804051 0.861599 0.198548
511 1 0.940611 0.876281 0.180904
484 1 0.00245029 0.937927 0.192613
488 1 0.128243 0.927044 0.187765
487 1 0.231096 0.927977 0.190486
500 1 0.497841 0.940159 0.193068
504 1 0.631274 0.91808 0.190005
508 1 0.74409 0.917472 0.197392
512 1 0.876176 0.93529 0.194978
259 1 0.0571329 0.00215421 0.184025
267 1 0.371101 0.934018 0.175437
275 1 0.554985 0.00966271 0.18226
279 1 0.671756 0.997706 0.190962
283 1 0.814088 0.99509 0.190927
271 1 0.367192 0.986132 0.233472
526 1 0.433564 0.0417345 0.253604
529 1 0.505547 1.00046 0.247545
534 1 0.678479 0.0676416 0.246293
538 1 0.810212 0.0658508 0.253906
542 1 0.928226 0.06327 0.256182
514 1 0.0780962 0.048705 0.253597
518 1 0.184117 0.04787 0.254362
522 1 0.318132 0.0564635 0.249844
530 1 0.564243 0.0574469 0.24596
549 1 0.126011 0.118962 0.246484
553 1 0.250053 0.119401 0.24999
557 1 0.38303 0.111922 0.255414
561 1 0.496795 0.117558 0.239815
565 1 0.618071 0.131325 0.244195
569 1 0.734621 0.128488 0.251797
573 1 0.864816 0.133617 0.253791
516 1 0.99536 0.133168 0.246042
546 1 0.0663398 0.18211 0.247158
550 1 0.183875 0.176612 0.248943
554 1 0.312828 0.184406 0.241236
558 1 0.442769 0.179555 0.250496
568 1 0.557006 0.189416 0.251503
566 1 0.669207 0.197503 0.240862
570 1 0.798861 0.178692 0.255417
574 1 0.932418 0.192477 0.259528
577 1 0.996591 0.247853 0.251582
581 1 0.118821 0.248067 0.241074
585 1 0.247909 0.237445 0.239795
589 1 0.38132 0.24473 0.239503
593 1 0.502318 0.251719 0.247982
597 1 0.609941 0.248717 0.236527
604 1 0.748726 0.251016 0.23751
605 1 0.875244 0.251353 0.257238
578 1 0.0555182 0.310233 0.238098
582 1 0.182813 0.29983 0.233348
586 1 0.325986 0.309966 0.240992
590 1 0.430037 0.309014 0.252421
594 1 0.559762 0.311578 0.241697
348 1 0.680727 0.320007 0.250121
379 1 0.818204 0.309293 0.255099
606 1 0.927961 0.313097 0.257391
609 1 1.00118 0.372761 0.26193
613 1 0.129912 0.369831 0.246111
617 1 0.248401 0.360096 0.240116
621 1 0.38045 0.374878 0.249203
625 1 0.500836 0.377855 0.255055
629 1 0.613587 0.374304 0.24996
858 1 0.742847 0.378631 0.257111
637 1 0.871448 0.376649 0.259274
610 1 0.0767026 0.430648 0.252656
614 1 0.175305 0.438759 0.252243
618 1 0.310912 0.432752 0.249304
622 1 0.443227 0.436543 0.25397
626 1 0.55442 0.437096 0.2513
630 1 0.684815 0.432781 0.248712
373 1 0.814838 0.433384 0.257607
638 1 0.940762 0.432297 0.260138
645 1 0.120873 0.508974 0.261338
653 1 0.380065 0.48537 0.254016
634 1 0.748334 0.497881 0.242073
666 1 0.876193 0.496295 0.24824
641 1 0.00457916 0.506639 0.254577
649 1 0.241644 0.498437 0.253317
654 1 0.432276 0.559403 0.256816
657 1 0.499535 0.502569 0.263449
661 1 0.629678 0.508484 0.251189
642 1 0.0733005 0.568522 0.252995
646 1 0.180028 0.565904 0.275411
650 1 0.316313 0.557356 0.262162
658 1 0.55683 0.567494 0.244911
662 1 0.703646 0.567951 0.248775
665 1 0.81487 0.562372 0.255331
670 1 0.936013 0.555486 0.262476
673 1 0.0116566 0.617142 0.265281
677 1 0.130459 0.628589 0.260183
681 1 0.241131 0.626657 0.261545
685 1 0.376081 0.616999 0.267023
689 1 0.494963 0.620962 0.258871
664 1 0.634491 0.610995 0.238568
697 1 0.762163 0.631047 0.242164
701 1 0.874131 0.629604 0.249675
674 1 0.0634108 0.683075 0.25241
678 1 0.192309 0.691168 0.257035
682 1 0.306344 0.689279 0.268904
686 1 0.436109 0.688334 0.244973
690 1 0.56238 0.686538 0.254381
694 1 0.691656 0.684603 0.259167
698 1 0.813258 0.692011 0.254202
702 1 0.941262 0.671813 0.257803
705 1 0.991669 0.746045 0.254683
709 1 0.130233 0.745302 0.248104
713 1 0.250063 0.750233 0.259398
717 1 0.369793 0.764306 0.252372
467 1 0.496867 0.754268 0.254182
725 1 0.617942 0.747861 0.253046
729 1 0.750724 0.741024 0.266396
733 1 0.883693 0.740088 0.247604
706 1 0.0532493 0.795816 0.243574
711 1 0.18845 0.806951 0.254396
714 1 0.304925 0.817839 0.26158
718 1 0.429363 0.819791 0.249594
724 1 0.563433 0.80954 0.261741
726 1 0.68572 0.808811 0.263954
730 1 0.819842 0.807531 0.262594
734 1 0.935172 0.813667 0.240068
737 1 0.995621 0.863472 0.255372
745 1 0.105375 0.86421 0.240091
491 1 0.245611 0.874391 0.245493
750 1 0.366482 0.874242 0.2523
753 1 0.496506 0.867292 0.242729
757 1 0.62586 0.871523 0.260141
761 1 0.758133 0.862934 0.26538
765 1 0.875143 0.874154 0.250205
483 1 0.0633263 0.931899 0.251078
742 1 0.178682 0.916301 0.253267
754 1 0.556349 0.922269 0.245716
758 1 0.681394 0.93455 0.249142
762 1 0.810156 0.926407 0.25321
766 1 0.936592 0.932828 0.26489
513 1 0.00216998 0.989931 0.262299
517 1 0.12889 0.984575 0.253342
521 1 0.247011 0.98868 0.248635
746 1 0.302863 0.933095 0.244283
756 1 0.436347 0.943652 0.258171
533 1 0.620371 0.000643032 0.250568
537 1 0.744221 0.988264 0.2402
541 1 0.867288 -0.000412005 0.254899
519 1 0.187553 0.980828 0.303246
525 1 0.312126 0.0013015 0.313062
527 1 0.450983 0.9994 0.317318
515 1 0.00980074 0.0631942 0.302691
520 1 0.130984 0.052429 0.313053
524 1 0.251471 0.0565664 0.300957
528 1 0.383633 0.056027 0.319635
532 1 0.500932 0.0656222 0.30294
536 1 0.630319 0.0602287 0.311727
540 1 0.736833 0.0698491 0.313813
544 1 0.876714 0.0633317 0.315651
547 1 0.0696549 0.114715 0.307063
551 1 0.183932 0.113084 0.302443
555 1 0.306617 0.116877 0.306836
559 1 0.430907 0.121472 0.316019
563 1 0.563948 0.117939 0.299255
567 1 0.678554 0.127684 0.311828
571 1 0.800604 0.123089 0.321719
575 1 0.926388 0.127961 0.308941
552 1 0.12153 0.182651 0.316186
556 1 0.24504 0.186498 0.303393
560 1 0.362383 0.17625 0.307703
564 1 0.498074 0.17033 0.306632
599 1 0.612945 0.187237 0.313928
572 1 0.740765 0.18848 0.311767
576 1 0.855296 0.184266 0.314471
545 1 0.000260832 0.188553 0.310208
548 1 0.0572824 0.249157 0.305525
583 1 0.186775 0.246017 0.303199
587 1 0.321441 0.245409 0.296045
591 1 0.421277 0.23134 0.31032
595 1 0.559449 0.26761 0.311386
600 1 0.675378 0.245633 0.306308
603 1 0.794152 0.251443 0.306439
607 1 0.931089 0.256448 0.314794
584 1 0.136828 0.312973 0.313405
588 1 0.260332 0.300152 0.293707
596 1 0.488051 0.312509 0.318056
598 1 0.624908 0.317152 0.31427
854 1 0.733604 0.305732 0.306503
608 1 0.872625 0.321279 0.317223
579 1 -0.0003292 0.316475 0.317516
611 1 0.0671407 0.366589 0.30969
615 1 0.175796 0.381481 0.310317
619 1 0.302981 0.368926 0.299048
623 1 0.437423 0.377175 0.306853
627 1 0.557202 0.366342 0.32068
886 1 0.68204 0.375092 0.313095
633 1 0.813558 0.371014 0.317514
639 1 0.939813 0.374547 0.314777
616 1 0.123728 0.442208 0.317959
620 1 0.248727 0.436958 0.303514
624 1 0.373191 0.429218 0.320234
628 1 0.498287 0.435484 0.314
632 1 0.605068 0.432381 0.312095
636 1 0.754154 0.435826 0.31435
640 1 0.881627 0.440074 0.31474
612 1 0.00574313 0.436117 0.318796
643 1 0.0642001 0.495603 0.322255
647 1 0.190697 0.496495 0.312905
655 1 0.432712 0.498698 0.315083
659 1 0.559974 0.502515 0.313874
671 1 0.940501 0.499518 0.318985
648 1 0.118105 0.553291 0.327528
651 1 0.301358 0.501391 0.323619
663 1 0.700209 0.50542 0.305716
667 1 0.816347 0.496288 0.305301
898 1 -0.00120466 0.563276 0.323884
652 1 0.253498 0.568123 0.321693
656 1 0.369721 0.56046 0.32189
660 1 0.509429 0.561117 0.333246
917 1 0.643872 0.560959 0.308695
668 1 0.763935 0.56023 0.316526
672 1 0.877071 0.564803 0.326317
675 1 0.0695996 0.617982 0.32388
679 1 0.180154 0.634815 0.321458
683 1 0.306296 0.630097 0.319836
687 1 0.436008 0.607197 0.320797
691 1 0.568853 0.624781 0.319562
695 1 0.690665 0.62452 0.320038
699 1 0.812814 0.627114 0.322874
644 1 0.937943 0.619791 0.319489
676 1 0.0045576 0.689187 0.314341
680 1 0.108726 0.6871 0.319109
684 1 0.247312 0.693945 0.335247
688 1 0.380097 0.693342 0.310476
692 1 0.501442 0.689757 0.317172
696 1 0.624426 0.683559 0.304543
700 1 0.751201 0.679048 0.320845
704 1 0.88064 0.682528 0.314354
707 1 0.0600611 0.749898 0.309248
965 1 0.175837 0.752606 0.320489
715 1 0.310377 0.758819 0.316933
721 1 0.433138 0.756247 0.302328
723 1 0.561018 0.745792 0.312323
727 1 0.671562 0.747198 0.318851
731 1 0.818362 0.748104 0.314812
735 1 0.939558 0.747564 0.317682
708 1 0.00805944 0.812711 0.321912
712 1 0.124851 0.819926 0.332381
716 1 0.250982 0.81484 0.32552
720 1 0.372963 0.820267 0.311248
751 1 0.494335 0.807951 0.317031
728 1 0.628171 0.82248 0.326273
732 1 0.749923 0.795893 0.324888
736 1 0.883087 0.802464 0.311821
739 1 0.0639444 0.873535 0.313691
743 1 0.201607 0.884454 0.321583
747 1 0.311869 0.875803 0.328909
749 1 0.449843 0.875961 0.314531
722 1 0.569061 0.878961 0.319785
759 1 0.696306 0.874272 0.327088
763 1 0.816459 0.869982 0.318854
767 1 0.938772 0.873995 0.319107
740 1 0.00319378 0.926758 0.314746
744 1 0.123068 0.93391 0.326309
748 1 0.261416 0.941703 0.311908
755 1 0.510552 0.946434 0.316984
760 1 0.629298 0.937562 0.306394
764 1 0.749585 0.932755 0.312244
768 1 0.863271 0.945074 0.311281
738 1 0.0633316 0.986419 0.320117
752 1 0.37124 0.951569 0.305409
531 1 0.572015 0.000897353 0.312742
535 1 0.682361 -0.00100327 0.304962
539 1 0.811195 0.00577237 0.310213
543 1 0.929719 0.00121533 0.307494
773 1 0.128225 0.997431 0.37857
777 1 0.249194 0.998579 0.368863
794 1 0.821507 0.0629795 0.37473
770 1 0.0664422 0.0518833 0.369909
774 1 0.19162 0.0592862 0.372562
778 1 0.307967 0.0607027 0.376164
782 1 0.439305 0.0617798 0.383076
786 1 0.569798 0.0637924 0.366403
790 1 0.684946 0.0599562 0.375481
798 1 0.933477 0.0568776 0.377959
805 1 0.126091 0.107594 0.375065
809 1 0.248996 0.120041 0.377881
813 1 0.373235 0.110727 0.381657
817 1 0.493675 0.129392 0.379328
821 1 0.612546 0.133438 0.374241
825 1 0.741004 0.134924 0.370515
829 1 0.879722 0.119141 0.385035
801 1 0.989763 0.118223 0.362157
802 1 0.0681843 0.167029 0.371388
806 1 0.180823 0.166488 0.367463
810 1 0.303019 0.187379 0.365577
814 1 0.434349 0.18198 0.370527
818 1 0.551644 0.186703 0.366396
822 1 0.678481 0.19479 0.370346
826 1 0.800946 0.192677 0.371436
830 1 0.934686 0.196274 0.369219
833 1 0.994763 0.249957 0.367741
837 1 0.128159 0.251657 0.362019
841 1 0.247381 0.248691 0.358668
845 1 0.368041 0.237862 0.370882
849 1 0.497408 0.246444 0.362108
853 1 0.619705 0.24856 0.378646
857 1 0.735509 0.249106 0.36952
861 1 0.861348 0.253214 0.359835
834 1 0.0559872 0.313207 0.38173
838 1 0.189704 0.305172 0.378283
842 1 0.306186 0.307337 0.358065
592 1 0.380919 0.301518 0.309168
846 1 0.435448 0.317096 0.373755
850 1 0.553446 0.306092 0.378718
631 1 0.683756 0.317684 0.379163
635 1 0.7985 0.305721 0.374053
893 1 0.932386 0.313861 0.372355
865 1 0.997473 0.376071 0.370264
869 1 0.123115 0.37396 0.369636
873 1 0.247865 0.368188 0.357553
877 1 0.367916 0.357881 0.373623
881 1 0.498583 0.379737 0.37848
885 1 0.622201 0.375777 0.373205
889 1 0.745118 0.375962 0.386224
890 1 0.87779 0.378404 0.37758
866 1 0.0656286 0.432612 0.377431
870 1 0.191113 0.43444 0.368602
874 1 0.292859 0.430708 0.372035
878 1 0.434011 0.42885 0.373255
882 1 0.558892 0.442316 0.379351
888 1 0.689757 0.436138 0.365251
921 1 0.830724 0.442145 0.379228
894 1 0.935517 0.429224 0.377738
897 1 0.00745283 0.504084 0.381315
901 1 0.128153 0.495047 0.383749
905 1 0.251355 0.50312 0.387521
909 1 0.379068 0.49915 0.389363
913 1 0.497403 0.493406 0.377727
915 1 0.627053 0.497689 0.367599
919 1 0.768268 0.503608 0.369411
925 1 0.883557 0.500778 0.378705
904 1 0.0612186 0.568376 0.389145
902 1 0.182556 0.566931 0.375315
906 1 0.310728 0.559974 0.380172
910 1 0.437528 0.558119 0.386681
914 1 0.584875 0.567284 0.367787
918 1 0.696845 0.545068 0.381762
922 1 0.814444 0.5663 0.382907
926 1 0.943984 0.554191 0.386529
933 1 0.122625 0.625233 0.378817
937 1 0.25364 0.620606 0.381535
941 1 0.368634 0.622791 0.375843
945 1 0.500146 0.629829 0.377883
949 1 0.629976 0.633981 0.374443
953 1 0.75754 0.62448 0.385663
957 1 0.875483 0.627475 0.38012
929 1 0.00215377 0.631578 0.376969
930 1 0.0605031 0.685385 0.378706
934 1 0.168697 0.69922 0.389971
938 1 0.317575 0.69159 0.379405
942 1 0.430868 0.682029 0.381895
946 1 0.564323 0.694415 0.373775
950 1 0.694552 0.691591 0.383366
954 1 0.815705 0.688388 0.378598
703 1 0.937485 0.691162 0.381839
961 1 0.00408133 0.747953 0.382129
963 1 0.108402 0.754187 0.376022
969 1 0.240563 0.749423 0.391886
973 1 0.379438 0.751946 0.366055
719 1 0.505437 0.749509 0.376952
981 1 0.620901 0.760867 0.37936
985 1 0.755447 0.743304 0.390615
989 1 0.87195 0.747558 0.379182
962 1 0.0665118 0.827115 0.388743
966 1 0.193429 0.814137 0.381618
970 1 0.32028 0.809685 0.38028
974 1 0.442594 0.798043 0.386468
982 1 0.687033 0.811223 0.378705
986 1 0.820448 0.816561 0.380342
990 1 0.944576 0.811574 0.368165
997 1 0.134257 0.880181 0.386178
1001 1 0.250126 0.889245 0.383465
1005 1 0.370284 0.870987 0.383062
1009 1 0.507311 0.88369 0.375753
1013 1 0.62216 0.880749 0.384461
1017 1 0.754564 0.871271 0.380028
1021 1 0.875862 0.871499 0.366789
993 1 0.999 0.877117 0.385093
998 1 0.18975 0.942338 0.376395
1006 1 0.435796 0.929018 0.377669
1014 1 0.681491 0.942246 0.374355
1018 1 0.808992 0.938513 0.383059
1022 1 0.932567 0.937204 0.378436
994 1 0.0569192 0.931671 0.380876
523 1 0.312321 0.940716 0.37847
781 1 0.376174 0.994688 0.382869
785 1 0.504051 0.0184805 0.37029
789 1 0.622613 0.00475768 0.37441
793 1 0.73797 0.000704025 0.363902
797 1 0.876265 0.99802 0.371337
769 1 0.991509 0.994142 0.374202
771 1 0.0575268 0.00624255 0.436197
776 1 0.123729 0.0502417 0.438071
791 1 0.676858 0.00298819 0.432671
796 1 0.752936 0.0734693 0.439731
795 1 0.801622 0.00450113 0.438586
780 1 0.255253 0.061971 0.43949
788 1 0.497194 0.0673604 0.441582
800 1 0.874342 0.0597226 0.44475
772 1 0.996558 0.0697534 0.426984
803 1 0.0623613 0.125394 0.441564
1065 1 0.313885 0.133668 0.433122
815 1 0.426553 0.128775 0.44413
819 1 0.552253 0.132099 0.431601
823 1 0.68166 0.135209 0.432234
827 1 0.808262 0.143578 0.43742
831 1 0.927487 0.125076 0.449712
804 1 0.990699 0.179557 0.427789
808 1 0.127771 0.177351 0.424728
812 1 0.250201 0.182251 0.431512
820 1 0.486169 0.189888 0.433734
824 1 0.621374 0.185229 0.432055
828 1 0.743309 0.192159 0.429579
835 1 0.0675242 0.234793 0.417793
843 1 0.303633 0.242478 0.426565
847 1 0.437592 0.253822 0.436506
851 1 0.553331 0.237603 0.431876
855 1 0.676435 0.248899 0.436125
859 1 0.806736 0.243383 0.435388
863 1 0.927007 0.251153 0.431354
840 1 0.122594 0.295539 0.428837
848 1 0.37228 0.309969 0.434121
852 1 0.492675 0.314507 0.435123
856 1 0.625653 0.316767 0.433463
860 1 0.746055 0.295762 0.440609
862 1 0.872904 0.309274 0.428904
580 1 0.00360347 0.311193 0.444597
867 1 0.0664268 0.369135 0.436294
871 1 0.194397 0.37024 0.42711
875 1 0.30748 0.364335 0.434416
879 1 0.419792 0.374899 0.434335
883 1 0.56133 0.36799 0.43177
887 1 0.6926 0.366245 0.452473
892 1 0.807546 0.356143 0.435324
895 1 0.946073 0.366792 0.432049
868 1 0.00518239 0.437441 0.439113
872 1 0.135877 0.426316 0.434489
876 1 0.249691 0.425182 0.442055
1138 1 0.635963 0.427421 0.432228
923 1 0.748231 0.44227 0.433527
896 1 0.88579 0.429456 0.440902
899 1 0.0687994 0.491694 0.441561
903 1 0.186231 0.508094 0.439107
880 1 0.362345 0.432287 0.439
1170 1 0.559396 0.504887 0.43832
1142 1 0.681641 0.502585 0.453975
927 1 0.941483 0.497274 0.443152
900 1 0.00628294 0.567509 0.449851
907 1 0.312443 0.493866 0.450763
911 1 0.451394 0.50156 0.442042
1154 1 0.116397 0.556061 0.442081
908 1 0.255581 0.550686 0.451518
912 1 0.373641 0.565701 0.440799
916 1 0.517556 0.570283 0.430245
920 1 0.632483 0.558949 0.431567
924 1 0.744285 0.564672 0.448023
959 1 0.883298 0.55981 0.443518
931 1 0.0692839 0.629479 0.444706
935 1 0.183618 0.609616 0.441071
939 1 0.314203 0.614572 0.438329
943 1 0.446261 0.620846 0.444805
951 1 0.68611 0.62327 0.432439
958 1 0.940158 0.62102 0.442137
932 1 0.994138 0.696107 0.44275
936 1 0.108547 0.696298 0.447504