ITEM: TIMESTEP
100000
ITEM: NUMBER OF ATOMS
2048
ITEM: BOX BOUNDS pp pp pp
0.0000000000000000e+00 1.1635780856594225e+01
0.0000000000000000e+00 1.1635780856594225e+01
0.0000000000000000e+00 1.1635780856594225e+01
ITEM: ATOMS id type xs ys zs
3 1 0.0663448 0.00282073 0.0494482
13 1 0.381974 0.00218504 0.996943
25 1 0.750393 0.999314 0.990928
31 1 0.948022 0.998125 0.06022
8 1 0.123666 0.0606379 0.0581619
6 1 0.184081 0.0605876 0.997197
10 1 0.316054 0.0627344 0.00214658
14 1 0.434818 0.0633547 1.00283
18 1 0.559283 0.0596585 0.00604255
24 1 0.630698 0.057757 0.0623946
26 1 0.815439 0.0550009 0.996229
41 1 0.243568 0.120751 0.998566
47 1 0.433909 0.125266 0.0706554
57 1 0.749674 0.125814 0.00686559
63 1 0.94508 0.13458 0.0569667
34 1 0.0671009 0.184264 0.994875
42 1 0.31448 0.180338 0.996708
46 1 0.434087 0.183128 0.0099035
52 1 0.495085 0.183287 0.0700592
50 1 0.555596 0.182976 -0.00284892
54 1 0.690443 0.183717 0.00815087
58 1 0.810335 0.185838 0.991514
64 1 0.874287 0.186436 0.0618792
65 1 1.00086 0.23739 0.991881
69 1 0.123557 0.25064 0.994736
73 1 0.246596 0.249781 0.993187
77 1 0.374543 0.250848 0.00437285
81 1 0.502743 0.253426 0.0132031
85 1 0.628173 0.24566 0.00743375
89 1 0.757813 0.252553 0.00690928
66 1 0.0704983 0.314979 0.996485
70 1 0.185114 0.3086 0.000622672
74 1 0.306553 0.316211 0.993429
82 1 0.565987 0.313261 0.00363105
86 1 0.683289 0.317658 1.0023
90 1 0.812388 0.311312 0.00651713
101 1 0.125127 0.374107 0.00653243
105 1 0.254901 0.3778 1.00217
109 1 0.375507 0.373766 0.00506113
117 1 0.626161 0.383452 0.993896
119 1 0.689433 0.378941 0.0587189
125 1 0.870541 0.380638 0.00306172
102 1 0.181574 0.437317 -0.00169427
106 1 0.314177 0.436547 0.00871806
110 1 0.436191 0.441738 0.00672664
114 1 0.559535 0.443273 0.995929
122 1 0.814532 0.442857 -0.00277991
126 1 0.938536 0.43073 0.995433
133 1 0.117367 0.498813 0.995294
147 1 0.551882 0.498131 0.0619547
149 1 0.624051 0.503085 0.995145
153 1 0.748487 0.498607 0.00378355
129 1 0.995766 0.505985 0.999922
140 1 0.255946 0.559378 0.0608747
142 1 0.43167 0.561422 0.996632
148 1 0.495541 0.561173 0.067035
150 1 0.690019 0.557715 0.990293
154 1 0.807328 0.559002 -0.000290455
160 1 0.863807 0.568449 0.062869
158 1 0.932261 0.561653 0.998255
161 1 0.991306 0.628114 0.994644
169 1 0.254928 0.626802 0.00673691
173 1 0.381821 0.629464 0.0013419
181 1 0.626292 0.619429 0.00910929
170 1 0.316092 0.682456 0.00707027
176 1 0.380079 0.692859 0.0668774
174 1 0.442474 0.690351 0.00743558
178 1 0.566772 0.677333 0.0105527
190 1 0.93362 0.686972 0.996188
195 1 0.0530338 0.752668 0.0640474
201 1 0.250546 0.746135 0.995507
209 1 0.503565 0.744688 0.0145858
213 1 0.622809 0.749837 0.00692156
217 1 0.750543 0.751622 1.0007
193 1 0.989925 0.746846 0.00135283
194 1 0.0580034 0.811843 0.00387555
198 1 0.18675 0.8039 1.0018
206 1 0.438963 0.811096 -0.00112521
212 1 0.502559 0.817645 0.0644531
210 1 0.557001 0.81199 0.00331356
214 1 0.68219 0.817046 0.0100116
220 1 0.752373 0.817181 0.0599088
225 1 0.00428136 0.872423 0.995145
229 1 0.130174 0.872146 0.995873
241 1 0.49788 0.866678 0.998205
249 1 0.747551 0.87799 0.00323985
234 1 0.316932 0.943546 0.991258
238 1 0.43861 0.93832 0.989835
252 1 0.753599 0.936377 0.0614597
254 1 0.9445 0.93366 0.996753
5 1 0.120694 0.997421 0.984258
236 1 0.248848 0.938794 0.0535972
242 1 0.561353 0.940439 -0.00050928
23 1 0.690987 -0.00208278 0.0689931
29 1 0.881762 0.00428533 0.998407
7 1 0.189047 0.995858 0.0549976
15 1 0.438306 0.991202 0.0619373
19 1 0.563013 0.000292992 0.0635213
12 1 0.253061 0.0594485 0.0630228
16 1 0.369236 0.0604771 0.0620094
20 1 0.495056 0.064234 0.0684592
28 1 0.754669 0.0576289 0.0664881
32 1 0.872411 0.0654256 0.0557571
4 1 0.001919 0.0599186 0.0577763
35 1 0.0741135 0.128294 0.0622827
39 1 0.184976 0.121925 0.0572882
43 1 0.307489 0.128022 0.0611932
51 1 0.554161 0.123567 0.0588176
55 1 0.689941 0.121989 0.0642029
59 1 0.809498 0.11747 0.0639187
40 1 0.123864 0.193382 0.0627451
44 1 0.249746 0.195011 0.0584956
48 1 0.362946 0.186125 0.0613714
302 1 0.435042 0.183492 0.130107
56 1 0.631391 0.184248 0.0678943
60 1 0.760202 0.187112 0.06369
318 1 0.939922 0.183788 0.123718
36 1 0.00854672 0.18892 0.0633272
67 1 0.0632131 0.249285 0.070773
71 1 0.19372 0.254374 0.0685088
75 1 0.311464 0.248951 0.0589677
79 1 0.426188 0.243836 0.0694721
83 1 0.561653 0.246562 0.0689039
87 1 0.696298 0.251145 0.0639419
91 1 0.808776 0.256896 0.0722504
95 1 0.943958 0.241387 0.054483
68 1 0.00115796 0.301456 0.0553296
72 1 0.126428 0.30619 0.0658603
76 1 0.253879 0.309764 0.0617138
80 1 0.373316 0.307535 0.065168
84 1 0.502939 0.314653 0.0667664
88 1 0.6276 0.304917 0.0649876
92 1 0.747402 0.317067 0.0574868
96 1 0.875554 0.314072 0.0609177
99 1 0.0678403 0.365464 0.0657614
103 1 0.193559 0.378896 0.0586138
107 1 0.320631 0.37137 0.0663042
111 1 0.435667 0.364972 0.0599905
115 1 0.556902 0.377644 0.0585907
123 1 0.818722 0.369817 0.0649198
127 1 0.940724 0.375596 0.0649906
104 1 0.128269 0.439285 0.0629776
108 1 0.258064 0.427659 0.068493
112 1 0.381466 0.434623 0.0634732
116 1 0.496621 0.434507 0.0624961
120 1 0.620858 0.436525 0.0648031
124 1 0.754405 0.437049 0.0645408
128 1 0.877022 0.444221 0.0596811
100 1 0.993442 0.439596 0.0588547
131 1 0.062893 0.494599 0.0579918
135 1 0.190529 0.50252 0.0702179
139 1 0.316276 0.501787 0.0651095
143 1 0.43476 0.496564 0.0670561
151 1 0.680229 0.501401 0.0607195
155 1 0.809342 0.504034 0.0621651
159 1 0.939354 0.502391 0.0646716
132 1 0.000316757 0.565354 0.0510721
136 1 0.124429 0.55599 0.0565957
144 1 0.37851 0.562227 0.0674344
152 1 0.61344 0.564655 0.0713617
156 1 0.744075 0.574336 0.0593326
163 1 0.0625805 0.620824 0.0624452
167 1 0.187987 0.611055 0.0591141
171 1 0.316356 0.618344 0.0641542
175 1 0.431062 0.625212 0.0653012
179 1 0.561055 0.623421 0.0744549
183 1 0.683384 0.62857 0.0718416
187 1 0.805685 0.630039 0.0638218
191 1 0.935971 0.62557 0.0548426
164 1 0.995478 0.683643 0.0634755
168 1 0.124898 0.681849 0.0550104
172 1 0.252486 0.693575 0.0671421
180 1 0.494873 0.689108 0.0736689
184 1 0.619945 0.687151 0.0700396
188 1 0.750657 0.692802 0.0608613
192 1 0.871777 0.69754 0.0640805
199 1 0.185508 0.744464 0.0613466
457 1 0.247265 0.758727 0.11903
203 1 0.319584 0.751279 0.0627542
207 1 0.440881 0.75333 0.0711239
211 1 0.563584 0.746464 0.0744002
215 1 0.687898 0.744894 0.0647407
219 1 0.820391 0.767413 0.0605199
223 1 0.940589 0.756262 0.0682401
196 1 -0.000108914 0.82025 0.0719867
200 1 0.121301 0.812482 0.059698
204 1 0.246521 0.814955 0.0601289
208 1 0.379963 0.809488 0.0643228
216 1 0.618926 0.815229 0.062959
224 1 0.88261 0.830214 0.0715685
227 1 0.0609276 0.877977 0.0574248
231 1 0.184919 0.872499 0.0615241
235 1 0.308408 0.880202 0.0607062
239 1 0.430608 0.87873 0.0627962
243 1 0.561275 0.883274 0.062881
505 1 0.746358 0.876184 0.123326
251 1 0.809723 0.882558 0.0662137
255 1 0.938781 0.888506 0.0650448
232 1 0.120943 0.942004 0.0581107
240 1 0.371812 0.941552 0.0602251
248 1 0.619492 0.942094 0.062702
247 1 0.67771 0.888274 0.0688516
228 1 0.00661096 0.938626 0.056495
261 1 0.129167 0.00563077 0.118706
11 1 0.309636 0.998647 0.0576525
244 1 0.504375 0.937345 0.0580602
502 1 0.676702 0.946344 0.127807
27 1 0.811966 0.993705 0.0584941
256 1 0.878158 0.946417 0.059615
258 1 0.0624435 0.0695243 0.120821
269 1 0.371768 -0.00317972 0.120615
273 1 0.498182 0.000270621 0.129648
277 1 0.621868 0.0061556 0.129917
281 1 0.746956 0.999309 0.131948
285 1 0.878407 0.00155927 0.123549
257 1 0.00729138 0.00157976 0.116903
262 1 0.187493 0.0689859 0.124925
266 1 0.310049 0.0577436 0.131683
270 1 0.432301 0.0566522 0.130862
274 1 0.561182 0.0598999 0.120567
278 1 0.690007 0.0614947 0.127857
282 1 0.815543 0.0559299 0.126867
286 1 0.933773 0.0662286 0.115585
293 1 0.128857 0.124697 0.125285
297 1 0.255193 0.126887 0.121586
301 1 0.367611 0.12274 0.119849
305 1 0.497312 0.126611 0.134543
309 1 0.621783 0.124454 0.128804
313 1 0.752507 0.120313 0.12335
317 1 0.872871 0.123577 0.115431
289 1 -0.000395028 0.125335 0.127548
290 1 0.0653503 0.183598 0.127203
294 1 0.187042 0.180473 0.115803
298 1 0.310894 0.192257 0.126905
306 1 0.560431 0.181483 0.126477
310 1 0.696899 0.189348 0.118099
314 1 0.813408 0.184459 0.129741
325 1 0.125172 0.253283 0.1297
329 1 0.253037 0.250786 0.12303
333 1 0.369793 0.244752 0.127563
337 1 0.493988 0.245226 0.130967
341 1 0.6265 0.24191 0.130356
345 1 0.750585 0.255893 0.126714
349 1 0.879965 0.252124 0.116341
321 1 0.995049 0.243164 0.127489
322 1 0.0575026 0.308626 0.125778
326 1 0.191676 0.311462 0.124751
330 1 0.312524 0.308363 0.122634
334 1 0.436586 0.306794 0.122098
338 1 0.560624 0.316883 0.126768
342 1 0.690001 0.314916 0.119519
346 1 0.8123 0.313317 0.129943
350 1 0.945506 0.311972 0.120059
353 1 0.00139511 0.377334 0.125517
357 1 0.122163 0.365267 0.124657
361 1 0.253579 0.366578 0.121827
365 1 0.376164 0.37148 0.127701
369 1 0.500881 0.372174 0.121679
373 1 0.62879 0.375119 0.124712
377 1 0.753671 0.371187 0.128459
381 1 0.882874 0.374563 0.118991
354 1 0.0686389 0.442386 0.120032
358 1 0.192095 0.435843 0.119239
362 1 0.315248 0.436213 0.125369
366 1 0.435465 0.436775 0.125331
370 1 0.557282 0.439684 0.127806
374 1 0.68579 0.438517 0.115671
378 1 0.824677 0.428778 0.124483
382 1 0.938809 0.438939 0.12188
385 1 0.00161893 0.505038 0.116834
389 1 0.134645 0.493063 0.125905
393 1 0.251369 0.492117 0.124286
397 1 0.376307 0.495436 0.128518
401 1 0.494938 0.493506 0.12518
405 1 0.621828 0.499313 0.119623
409 1 0.738833 0.505507 0.122278
413 1 0.87944 0.494964 0.126051
386 1 0.0667496 0.555986 0.115791
390 1 0.201254 0.56795 0.127381
394 1 0.306568 0.552398 0.129706
398 1 0.432686 0.565046 0.126751
402 1 0.555904 0.564277 0.134504
406 1 0.675325 0.561567 0.125104
410 1 0.80399 0.562467 0.125012
414 1 0.933203 0.561344 0.123419
417 1 0.991967 0.619235 0.117878
421 1 0.133055 0.626534 0.119464
425 1 0.254843 0.630924 0.119588
429 1 0.374501 0.625391 0.128036
433 1 0.495054 0.624051 0.123398
437 1 0.623686 0.631105 0.131229
441 1 0.747997 0.632136 0.131342
445 1 0.877497 0.63046 0.118497
418 1 0.0633231 0.688674 0.120903
422 1 0.190053 0.692985 0.124603
426 1 0.313614 0.68596 0.128763
430 1 0.435512 0.690066 0.136167
434 1 0.554344 0.68211 0.135024
438 1 0.682223 0.68857 0.132909
442 1 0.807607 0.691309 0.125289
446 1 0.937856 0.690278 0.121746
449 1 -0.000967837 0.753858 0.129536
453 1 0.123271 0.749224 0.121898
461 1 0.367231 0.751876 0.129763
465 1 0.498496 0.750256 0.129182
469 1 0.628447 0.760009 0.127186
473 1 0.745721 0.746154 0.1228
477 1 0.875815 0.754762 0.124231
450 1 0.0638878 0.812588 0.134906
454 1 0.18105 0.814488 0.127888
458 1 0.314497 0.820184 0.122276
462 1 0.444351 0.814391 0.126239
466 1 0.559575 0.823137 0.126564
470 1 0.688898 0.815444 0.115104
474 1 0.821539 0.818579 0.125671
478 1 0.943356 0.816832 0.127364
481 1 0.00992188 0.889656 0.126226
485 1 0.131884 0.879518 0.128719
489 1 0.251779 0.874301 0.120413
493 1 0.366134 0.888325 0.125653
497 1 0.500893 0.88193 0.129717
501 1 0.621218 0.874777 0.129249
509 1 0.880936 0.885665 0.132003
482 1 0.0747038 0.942506 0.125689
486 1 0.189061 0.938066 0.118324
490 1 0.300721 0.94412 0.117352
494 1 0.436526 0.941516 0.128
498 1 0.558058 0.943461 0.125377
265 1 0.238042 0.00265829 0.1163
506 1 0.818847 0.940133 0.127248
510 1 0.947153 0.943764 0.133324
259 1 0.0761483 0.00205795 0.188936
264 1 0.125702 0.0662401 0.190299
267 1 0.316147 0.993041 0.182299
271 1 0.444861 0.998413 0.192283
279 1 0.682341 0.00718952 0.193718
283 1 0.808308 -0.000335053 0.194237
291 1 0.0635641 0.121968 0.181647
268 1 0.244323 0.0578231 0.182598
299 1 0.310956 0.126785 0.193093
272 1 0.37291 0.0577001 0.190345
276 1 0.499207 0.0640496 0.185228
280 1 0.628576 0.0688827 0.189636
284 1 0.74848 0.0584242 0.186384
288 1 0.864334 0.0599496 0.19279
260 1 0.00137154 0.0605791 0.187175
295 1 0.194509 0.128561 0.181556
300 1 0.251094 0.187865 0.185166
303 1 0.429147 0.122761 0.192187
307 1 0.559949 0.12501 0.188095
311 1 0.68824 0.126176 0.188751
315 1 0.800259 0.127223 0.188723
319 1 0.930604 0.112216 0.187502
296 1 0.132102 0.183002 0.180575
304 1 0.375041 0.188491 0.186977
308 1 0.497806 0.185627 0.191512
312 1 0.621778 0.182047 0.191414
316 1 0.748098 0.191478 0.191664
320 1 0.86462 0.178744 0.198801
292 1 0.995567 0.182941 0.185037
323 1 0.0578657 0.245033 0.184873
327 1 0.196315 0.247495 0.181016
331 1 0.311226 0.25076 0.188557
335 1 0.435288 0.252956 0.188252
339 1 0.565043 0.251476 0.184377
343 1 0.681878 0.250403 0.191981
347 1 0.813301 0.247967 0.194182
351 1 0.933015 0.246557 0.17977
324 1 0.994059 0.303041 0.187557
328 1 0.11746 0.311879 0.188282
332 1 0.251471 0.307656 0.186066
336 1 0.375588 0.318531 0.190026
340 1 0.506005 0.313207 0.192669
344 1 0.627161 0.319318 0.185992
348 1 0.750504 0.31854 0.191337
352 1 0.87053 0.300709 0.186703
355 1 0.0644361 0.381016 0.180241
359 1 0.183739 0.374371 0.180332
363 1 0.313152 0.380045 0.190448
367 1 0.448053 0.37175 0.183553
371 1 0.56527 0.380197 0.183321
375 1 0.687594 0.385326 0.186783
379 1 0.804435 0.379749 0.192453
383 1 0.934928 0.384444 0.181543
356 1 0.00384661 0.440161 0.184855
360 1 0.129845 0.437494 0.188636
364 1 0.245872 0.428605 0.180965
368 1 0.376354 0.434846 0.187881
372 1 0.500616 0.440124 0.193353
376 1 0.623137 0.447149 0.182063
380 1 0.745348 0.441436 0.186447
384 1 0.873515 0.440622 0.192805
387 1 0.0586647 0.509484 0.180281
391 1 0.20257 0.503875 0.190349
395 1 0.31303 0.491485 0.187005
399 1 0.430284 0.503081 0.194243
403 1 0.560104 0.496436 0.200802
407 1 0.67945 0.502434 0.188034
411 1 0.808983 0.497136 0.181666
415 1 0.942545 0.501801 0.182637
388 1 1.00052 0.564139 0.182738
392 1 0.136122 0.562284 0.178835
396 1 0.253673 0.572456 0.188896
400 1 0.363146 0.559631 0.191659
404 1 0.49927 0.56094 0.195146
408 1 0.625702 0.567063 0.189618
412 1 0.754834 0.562965 0.188926
416 1 0.875928 0.557268 0.186104
419 1 0.0645324 0.614722 0.184303
423 1 0.19435 0.628471 0.186828
427 1 0.313633 0.627278 0.189882
431 1 0.434422 0.627387 0.194335
435 1 0.560755 0.626797 0.200262
439 1 0.689319 0.623725 0.188276
443 1 0.821351 0.628569 0.17591
447 1 0.93005 0.624775 0.182961
420 1 0.00440753 0.676743 0.181461
424 1 0.121449 0.68494 0.185324
428 1 0.242354 0.693234 0.187007
432 1 0.373513 0.68865 0.191395
436 1 0.497244 0.688956 0.197271
440 1 0.617838 0.691125 0.189071
444 1 0.74437 0.693404 0.191733
448 1 0.875485 0.690922 0.181444
451 1 0.0688718 0.755527 0.190531
455 1 0.180257 0.757071 0.185733
459 1 0.315363 0.752073 0.193414
463 1 0.439412 0.7587 0.184596
467 1 0.561974 0.751382 0.182511
471 1 0.682017 0.751294 0.192875
475 1 0.815914 0.753724 0.183263
479 1 0.938208 0.743949 0.191059
452 1 0.00128576 0.813039 0.190561
456 1 0.12682 0.8208 0.191993
460 1 0.250078 0.815404 0.187499
464 1 0.376432 0.827101 0.178639
468 1 0.505328 0.81711 0.191465
472 1 0.621776 0.813024 0.191252
476 1 0.738228 0.812568 0.185686
480 1 0.886257 0.809558 0.186975
483 1 0.0651119 0.882239 0.186614
487 1 0.194223 0.878621 0.192558
491 1 0.318129 0.88092 0.201179
495 1 0.433136 0.881405 0.190048
499 1 0.561264 0.8795 0.190846
503 1 0.687441 0.88121 0.184963
507 1 0.807634 0.872333 0.194514
511 1 0.947362 0.879285 0.182287
492 1 0.245827 0.943133 0.180658
496 1 0.378809 0.941922 0.188322
508 1 0.757884 0.931443 0.182419
512 1 0.870637 0.942815 0.190931
484 1 0.010444 0.949888 0.188434
488 1 0.128635 0.938405 0.192626
263 1 0.184356 -0.00186148 0.17861
500 1 0.496988 0.938572 0.188368
275 1 0.556516 1.00229 0.18746
504 1 0.62125 0.93794 0.185749
287 1 0.934636 0.00800132 0.191204
518 1 0.188172 0.063429 0.256011
522 1 0.304003 0.060551 0.238014
525 1 0.377981 0.996921 0.250966
529 1 0.499447 0.00987137 0.258579
530 1 0.558321 0.0680873 0.24708
537 1 0.744144 0.991441 0.247932
538 1 0.807001 0.0684305 0.252964
513 1 0.00301119 0.00677583 0.255943
514 1 0.0595607 0.0676705 0.248259
553 1 0.248087 0.121609 0.246663
526 1 0.433762 0.0577919 0.252066
534 1 0.681741 0.069076 0.253496
542 1 0.944524 0.0660667 0.262327
545 1 0.00344145 0.127864 0.249994
549 1 0.131575 0.12791 0.24993
557 1 0.371684 0.117137 0.253548
561 1 0.490592 0.12159 0.251967
565 1 0.617379 0.125183 0.249726
569 1 0.744368 0.127744 0.249422
573 1 0.875716 0.121956 0.261648
546 1 0.0671941 0.184939 0.241123
550 1 0.185435 0.186278 0.241017
554 1 0.319174 0.179717 0.253447
558 1 0.434805 0.181927 0.252029
562 1 0.565091 0.187458 0.257731
566 1 0.68355 0.184482 0.252477
570 1 0.807759 0.18275 0.254446
574 1 0.936216 0.183895 0.249936
581 1 0.116367 0.249001 0.240132
585 1 0.251838 0.239535 0.249948
589 1 0.375157 0.246339 0.253123
593 1 0.497906 0.245004 0.251666
597 1 0.621618 0.245532 0.253984
601 1 0.745754 0.24735 0.255968
605 1 0.871491 0.250264 0.254291
577 1 0.990985 0.244564 0.245628
578 1 0.0589 0.304933 0.252648
582 1 0.180463 0.30443 0.243437
586 1 0.320376 0.305136 0.253743
590 1 0.439112 0.303759 0.252251
594 1 0.562787 0.312806 0.247517
598 1 0.685789 0.311967 0.253011
602 1 0.813119 0.307685 0.251279
606 1 0.94027 0.309954 0.249224
613 1 0.121302 0.37416 0.258941
617 1 0.243932 0.367984 0.243459
621 1 0.376579 0.373977 0.255124
625 1 0.508122 0.37253 0.250521
629 1 0.627141 0.370835 0.25982
633 1 0.749445 0.370083 0.257352
637 1 0.872623 0.366189 0.240486
609 1 0.99506 0.375503 0.238669
610 1 0.0642454 0.442767 0.249624
614 1 0.194232 0.434318 0.247238
618 1 0.310483 0.437165 0.255804
622 1 0.438147 0.434711 0.257041
626 1 0.572002 0.431943 0.257766
630 1 0.687765 0.437656 0.255878
634 1 0.802545 0.438691 0.257478
638 1 0.94172 0.441622 0.242175
641 1 -0.00222863 0.497229 0.250103
645 1 0.143524 0.502619 0.243119
649 1 0.253892 0.499825 0.264418
653 1 0.376872 0.493793 0.257107
657 1 0.495925 0.499016 0.252953
661 1 0.625909 0.49743 0.249256
665 1 0.757431 0.505762 0.2497
669 1 0.867076 0.501647 0.248885
642 1 0.0686022 0.55202 0.254505
646 1 0.184752 0.571726 0.253417
650 1 0.304145 0.564333 0.250294
654 1 0.428965 0.56623 0.249057
658 1 0.558271 0.55754 0.251781
662 1 0.689819 0.561171 0.252825
666 1 0.811486 0.563935 0.257214
670 1 0.939129 0.559481 0.242852
677 1 0.126297 0.627227 0.241672
681 1 0.249502 0.634437 0.246889
685 1 0.368708 0.626779 0.252321
689 1 0.491967 0.62628 0.254127
693 1 0.629309 0.625627 0.251792
697 1 0.765279 0.62896 0.246531
701 1 0.877284 0.627797 0.255229
673 1 0.0103491 0.615355 0.249202
674 1 0.0636425 0.688714 0.248
678 1 0.187313 0.693967 0.246405
682 1 0.311008 0.697298 0.251149
686 1 0.436681 0.68743 0.254366
690 1 0.559018 0.702272 0.250731
694 1 0.685041 0.687786 0.246644
698 1 0.824123 0.690023 0.246343
702 1 0.942792 0.68133 0.24457
709 1 0.121693 0.753668 0.254418
713 1 0.252923 0.756609 0.252778
717 1 0.382888 0.747039 0.242588
721 1 0.493415 0.751258 0.247344
725 1 0.626633 0.753058 0.263239
729 1 0.745889 0.751759 0.248207
733 1 0.879954 0.754242 0.248592
705 1 0.00371601 0.743682 0.25386
706 1 0.0604776 0.817242 0.252054
710 1 0.192488 0.819442 0.250701
714 1 0.318522 0.813405 0.252717
718 1 0.440655 0.817801 0.247941
722 1 0.569621 0.811827 0.250962
726 1 0.682191 0.814201 0.253361
730 1 0.816651 0.815199 0.252681
734 1 0.943438 0.811125 0.25061
741 1 0.127263 0.884716 0.253632
745 1 0.250529 0.881182 0.255411
749 1 0.383314 0.879789 0.254881
757 1 0.623113 0.876785 0.25251
761 1 0.747586 0.86726 0.249748
765 1 0.883392 0.872395 0.24243
737 1 0.00686582 0.88032 0.24794
742 1 0.194225 0.944736 0.254275
746 1 0.314439 0.944989 0.250527
753 1 0.498931 0.87977 0.256257
758 1 0.685935 0.932112 0.250918
766 1 0.942127 0.94877 0.249441
738 1 0.0631099 0.945664 0.251768
517 1 0.124186 0.00770021 0.25895
521 1 0.25417 1.0005 0.24999
750 1 0.440108 0.941441 0.255902
754 1 0.556642 0.940559 0.253006
533 1 0.613997 4.61647e-06 0.25309
762 1 0.815656 0.938732 0.251271
541 1 0.874902 0.997972 0.254782
516 1 0.00383953 0.0581893 0.32881
515 1 0.0603117 0.998741 0.315083
520 1 0.130727 0.0712094 0.316183
524 1 0.249207 0.0646787 0.31392
527 1 0.433375 0.000691043 0.322944
531 1 0.562272 0.0125884 0.31601
536 1 0.628925 0.0633821 0.314941
543 1 0.93855 0.00415001 0.31882
547 1 0.0644262 0.125654 0.307469
528 1 0.378935 0.0629014 0.312612
532 1 0.493833 0.069495 0.318606
540 1 0.74286 0.0599159 0.311913
544 1 0.870171 0.0587733 0.314611
551 1 0.192949 0.126621 0.310783
555 1 0.3141 0.123386 0.318552
559 1 0.434042 0.128901 0.318416
563 1 0.565198 0.12295 0.315656
567 1 0.686151 0.126796 0.319989
571 1 0.813172 0.127566 0.314257
575 1 0.939442 0.126213 0.325256
548 1 -0.000774244 0.179882 0.32015
552 1 0.128191 0.189653 0.307898
556 1 0.25388 0.181916 0.308875
560 1 0.377198 0.187902 0.321753
564 1 0.499235 0.183514 0.308907
568 1 0.624302 0.191753 0.316146
572 1 0.74965 0.188789 0.316864
576 1 0.877154 0.185971 0.316449
579 1 0.060745 0.243604 0.308704
583 1 0.190792 0.244651 0.311028
587 1 0.300254 0.246856 0.312661
591 1 0.446866 0.248655 0.318212
595 1 0.555473 0.251474 0.319005
599 1 0.688058 0.24701 0.309573
603 1 0.816339 0.249127 0.31403
607 1 0.937378 0.249834 0.306952
584 1 0.122298 0.300067 0.304401
588 1 0.237523 0.31558 0.307527
592 1 0.380455 0.301954 0.314051
596 1 0.502187 0.310724 0.31124
600 1 0.624475 0.309119 0.31476
604 1 0.752731 0.303575 0.316973
608 1 0.884718 0.321529 0.313224
580 1 0.996059 0.318902 0.31026
611 1 0.0562375 0.377103 0.307408
615 1 0.184617 0.376151 0.312274
619 1 0.311887 0.374597 0.320256
623 1 0.44248 0.370653 0.31282
627 1 0.561537 0.368052 0.315126
631 1 0.690425 0.365782 0.316165
635 1 0.815048 0.368416 0.309605
639 1 0.94366 0.383113 0.303487
616 1 0.130619 0.437076 0.320141
620 1 0.254345 0.434377 0.314959
624 1 0.374691 0.431471 0.31421
628 1 0.499323 0.43413 0.322548
632 1 0.629257 0.433711 0.318006
636 1 0.746232 0.440333 0.317237
640 1 0.877506 0.431958 0.302763
612 1 1.00017 0.444955 0.311863
643 1 0.0654327 0.494573 0.318599
647 1 0.188617 0.501646 0.313871
651 1 0.315722 0.493056 0.318259
655 1 0.437426 0.503598 0.317154
659 1 0.570649 0.495482 0.312773
663 1 0.687408 0.497878 0.315446
667 1 0.81215 0.499206 0.310973
671 1 0.932213 0.504382 0.302525
648 1 0.130154 0.56935 0.314064
652 1 0.254066 0.563934 0.318814
656 1 0.369951 0.562719 0.303582
660 1 0.498521 0.569264 0.315836
664 1 0.629593 0.558962 0.317772
668 1 0.750906 0.557008 0.314576
672 1 0.868311 0.567345 0.318741
644 1 0.996414 0.563193 0.319598
675 1 0.066112 0.631346 0.31044
679 1 0.194119 0.630908 0.32028
683 1 0.310963 0.62606 0.315462
687 1 0.430071 0.632173 0.319577
691 1 0.562015 0.625384 0.30623
695 1 0.688375 0.617887 0.317565
699 1 0.819098 0.630757 0.313939
703 1 0.935605 0.624868 0.320314
676 1 0.993118 0.686782 0.310754
680 1 0.126299 0.685156 0.309805
684 1 0.254057 0.692555 0.307806
688 1 0.372126 0.690096 0.309405
692 1 0.499401 0.691454 0.324239
696 1 0.626042 0.686607 0.312039
700 1 0.747471 0.679923 0.314981
704 1 0.881218 0.693556 0.316163
707 1 0.0612003 0.739332 0.312666
711 1 0.184506 0.759048 0.30553
715 1 0.320994 0.758035 0.318054
719 1 0.432816 0.752878 0.31025
723 1 0.554171 0.75449 0.314555
727 1 0.691389 0.741241 0.316113
731 1 0.800834 0.745116 0.307325
735 1 0.943447 0.751401 0.308327
712 1 0.120571 0.8185 0.310396
716 1 0.248914 0.812424 0.316254
720 1 0.38298 0.81973 0.310684
724 1 0.494552 0.815866 0.306848
732 1 0.744966 0.806243 0.310014
736 1 0.881541 0.818093 0.305563
708 1 0.00740869 0.812224 0.308995
743 1 0.18773 0.876397 0.311924
747 1 0.312738 0.870007 0.312727
751 1 0.449468 0.879551 0.316661
755 1 0.563963 0.884387 0.317077
728 1 0.625077 0.816878 0.314456
759 1 0.688492 0.875499 0.311445
767 1 0.944143 0.87888 0.306204
739 1 0.0619937 0.881915 0.308022
744 1 0.121894 0.940634 0.312291
748 1 0.253579 0.937443 0.316337
756 1 0.498194 0.944807 0.318541
760 1 0.624524 0.942583 0.321458
763 1 0.811887 0.868816 0.314168
768 1 0.881427 0.932901 0.304429
519 1 0.194148 0.00508522 0.312525
523 1 0.310143 0.00680016 0.3143
752 1 0.376026 0.940858 0.312149
535 1 0.689462 0.996903 0.310976
764 1 0.746828 0.937171 0.310026
539 1 0.805248 1.00067 0.306473
740 1 0.00351518 0.940774 0.309407
770 1 0.0752225 0.0569533 0.375893
773 1 0.131861 0.00275917 0.36965
774 1 0.189501 0.0720759 0.374333
778 1 0.313955 0.0669025 0.380036
781 1 0.372172 0.99584 0.375497
785 1 0.499463 0.00838599 0.384723
789 1 0.631625 0.00798991 0.375948
790 1 0.689284 0.0675677 0.375132
797 1 0.876838 0.0028219 0.375091
782 1 0.429838 0.0591406 0.388163
786 1 0.56111 0.062061 0.375568
821 1 0.626339 0.124787 0.379562
794 1 0.804417 0.0629392 0.367635
798 1 0.936859 0.0594968 0.38105
801 1 0.998181 0.119913 0.381872
805 1 0.127518 0.127983 0.380069
809 1 0.252314 0.128423 0.376303
813 1 0.375052 0.125262 0.378651
817 1 0.503936 0.124255 0.374286
825 1 0.748537 0.126582 0.377161
829 1 0.874158 0.127105 0.376423
802 1 0.0629244 0.181911 0.374369
806 1 0.187832 0.187873 0.372899
810 1 0.309807 0.194553 0.374547
814 1 0.443208 0.185469 0.384339
818 1 0.563832 0.178005 0.377519
822 1 0.685832 0.191388 0.376627
826 1 0.814048 0.185301 0.376071
830 1 0.938115 0.193725 0.377633
833 1 -0.000975201 0.247629 0.368086
837 1 0.126873 0.247219 0.3662
841 1 0.244494 0.259333 0.37822
845 1 0.382166 0.246458 0.374343
849 1 0.501845 0.25123 0.383786
853 1 0.622718 0.252715 0.375077
857 1 0.757109 0.241357 0.376833
861 1 0.873536 0.245143 0.377343
834 1 0.0610063 0.309903 0.36859
838 1 0.181964 0.310058 0.368496
842 1 0.316601 0.300162 0.367063
846 1 0.440658 0.311555 0.374561
850 1 0.562228 0.308947 0.378211
854 1 0.695112 0.309331 0.375765
858 1 0.812517 0.307353 0.37637
862 1 0.936934 0.308413 0.379414
869 1 0.12431 0.368571 0.370249
873 1 0.24788 0.372791 0.372631
877 1 0.37489 0.373608 0.377226
881 1 0.500223 0.372304 0.382308
885 1 0.622537 0.368701 0.377502
889 1 0.757321 0.368218 0.370981
893 1 0.880453 0.382659 0.377724
865 1 0.999489 0.369878 0.377493
866 1 0.0635501 0.432598 0.369535
870 1 0.192447 0.432244 0.375299
874 1 0.310269 0.435629 0.378214
878 1 0.43453 0.436776 0.375672
882 1 0.566545 0.434881 0.37309
886 1 0.688123 0.433579 0.38057
890 1 0.81483 0.430005 0.360822
894 1 0.945728 0.432406 0.378308
901 1 0.12314 0.50092 0.378275
905 1 0.252781 0.496768 0.375973
909 1 0.37919 0.496648 0.377169
913 1 0.504626 0.508336 0.373638
917 1 0.629084 0.498561 0.376156
921 1 0.751555 0.496052 0.373962
925 1 0.877311 0.481746 0.370602
897 1 0.993805 0.500538 0.368557
898 1 0.068347 0.567272 0.370779
902 1 0.188242 0.562773 0.374855
906 1 0.322911 0.559076 0.378619
910 1 0.436308 0.568798 0.373833
914 1 0.563657 0.566322 0.366792
918 1 0.685982 0.561012 0.376634
922 1 0.808329 0.557174 0.377366
926 1 0.930488 0.552785 0.372815
933 1 0.125129 0.631549 0.376958
937 1 0.258026 0.621884 0.382092
941 1 0.367193 0.623077 0.374464
945 1 0.498094 0.628942 0.38025
949 1 0.620125 0.626872 0.369117
953 1 0.748668 0.616377 0.376732
957 1 0.871709 0.627149 0.377761
929 1 0.999231 0.621516 0.377187
930 1 0.0600545 0.684787 0.376872
934 1 0.185618 0.693235 0.37203
938 1 0.308797 0.68952 0.372726
942 1 0.433695 0.691294 0.375408
946 1 0.561492 0.691222 0.38
950 1 0.680879 0.6858 0.377615
954 1 0.816802 0.697561 0.372596
958 1 0.933702 0.693859 0.376066
961 1 0.996387 0.743992 0.371096
965 1 0.128363 0.748838 0.368272
969 1 0.245911 0.750183 0.368178
973 1 0.373933 0.75669 0.385161
977 1 0.498609 0.753465 0.379964
981 1 0.626571 0.754852 0.373974
985 1 0.747545 0.743824 0.380762
989 1 0.881987 0.759939 0.3673
962 1 0.0692434 0.80513 0.369767
966 1 0.187057 0.810957 0.375228
974 1 0.443096 0.815355 0.373527
978 1 0.564759 0.810792 0.373367
982 1 0.695202 0.81033 0.37833
986 1 0.816515 0.808002 0.373428
990 1 0.942937 0.811399 0.367238
997 1 0.127478 0.881071 0.375024
1001 1 0.254884 0.874813 0.376195
970 1 0.315991 0.818459 0.382126
1005 1 0.370799 0.877369 0.373999
1009 1 0.502601 0.872642 0.373208
1013 1 0.62062 0.873761 0.372998
1017 1 0.750839 0.879051 0.370549
1021 1 0.878772 0.8723 0.369891
993 1 0.000346382 0.869957 0.368794
998 1 0.187106 0.94415 0.369349
1002 1 0.309297 0.936236 0.379557
1014 1 0.68799 0.938887 0.373879
1022 1 0.942515 0.934186 0.369202
994 1 0.0575026 0.934196 0.373237
777 1 0.251615 0.00570907 0.371186
1006 1 0.437747 0.934606 0.379459
1010 1 0.561362 0.946158 0.371717
793 1 0.746019 0.00345543 0.370797
1018 1 0.813637 0.94821 0.368954
769 1 0.996964 0.99492 0.382802
776 1 0.129893 0.0689849 0.437655
780 1 0.253388 0.0717323 0.440236
784 1 0.366243 0.0629667 0.445018
783 1 0.433643 0.998757 0.441072
787 1 0.568013 0.00186354 0.441116
791 1 0.690834 1.0006 0.440308
796 1 0.745294 0.0631826 0.438532
795 1 0.810396 0.00643914 0.42534
811 1 0.310424 0.132344 0.438085
788 1 0.501985 0.0665694 0.443048
792 1 0.629591 0.0631826 0.437262
800 1 0.87903 0.0567341 0.44078
772 1 0.0028545 0.0578146 0.436767
803 1 0.0666674 0.128766 0.437105
807 1 0.190148 0.130511 0.435402
815 1 0.435268 0.128469 0.438879
819 1 0.566123 0.118886 0.433738
823 1 0.68964 0.130075 0.435514
827 1 0.811256 0.120231 0.426996
831 1 0.937716 0.117181 0.441574
804 1 0.995032 0.177037 0.43607
808 1 0.12556 0.19344 0.43114
812 1 0.251157 0.188879 0.434246
816 1 0.366909 0.193354 0.43944
820 1 0.507773 0.183675 0.438974
824 1 0.624987 0.190723 0.435064
828 1 0.753864 0.190144 0.442206
832 1 0.873449 0.183357 0.44471
835 1 0.0518349 0.238458 0.430374
839 1 0.186369 0.251714 0.436026
843 1 0.309315 0.252768 0.434559
847 1 0.439918 0.245668 0.442777
851 1 0.563071 0.252464 0.446163
855 1 0.686227 0.261853 0.443018
859 1 0.813191 0.252734 0.439089
863 1 0.935795 0.248585 0.439996
840 1 0.124152 0.306831 0.425164
844 1 0.245792 0.318757 0.440209
848 1 0.370864 0.311056 0.434385
852 1 0.495032 0.311912 0.440325
856 1 0.622099 0.311221 0.442456
860 1 0.748132 0.314536 0.444949
864 1 0.873562 0.3116 0.432242
836 1 0.00774057 0.310041 0.433635
867 1 0.0714541 0.375367 0.436282
871 1 0.182243 0.372211 0.428876
875 1 0.314207 0.373271 0.436982
879 1 0.433558 0.374093 0.436111
883 1 0.561907 0.373838 0.440983
887 1 0.683403 0.368017 0.433786
891 1 0.816985 0.375847 0.435945
895 1 0.936346 0.363708 0.444779
872 1 0.125554 0.439258 0.439694
876 1 0.251396 0.42561 0.434936
880 1 0.375983 0.431167 0.437791
884 1 0.508946 0.437813 0.43376