ITEM: TIMESTEP
100000
ITEM: NUMBER OF ATOMS
2048
ITEM: BOX BOUNDS pp pp pp
0.0000000000000000e+00 1.2699208415745595e+01
0.0000000000000000e+00 1.2699208415745595e+01
0.0000000000000000e+00 1.2699208415745595e+01
ITEM: ATOMS id type xs ys zs
1404 1 0.242998 0.00508803 0.161308
939 1 0.62245 0.110384 0.995609
620 1 0.0353867 0.231774 0.160995
303 1 0.383319 0.995581 0.0106743
697 1 0.575214 0.215663 0.162112
1330 1 0.69016 0.198934 0.0227935
451 1 0.91513 0.134345 0.09144
816 1 0.215848 0.24471 0.0862014
1506 1 0.187505 0.124436 0.936429
2031 1 0.298123 0.0669223 0.107088
409 1 0.412741 0.0512808 0.946065
562 1 0.717474 0.159991 0.167883
526 1 0.711025 0.00279606 0.916754
786 1 0.789236 0.160284 0.16582
1317 1 0.0899321 0.0515778 0.0988566
1452 1 0.128467 0.268367 0.0805027
279 1 0.267236 0.368008 0.0484462
617 1 0.276948 0.0734114 0.925562
467 1 0.498634 0.181641 0.937899
1213 1 0.650102 0.203429 0.897167
1586 1 0.801718 0.139982 0.999978
175 1 0.338386 0.0563861 0.988108
1741 1 0.384933 0.36346 0.874655
1993 1 0.893201 0.195026 0.917949
1323 1 0.986615 0.385249 0.00285875
300 1 0.411965 0.221076 0.0316938
1391 1 0.31098 0.428871 0.0885284
744 1 0.542758 0.330827 0.934044
1448 1 0.0499731 0.288698 0.0869199
1342 1 0.206631 0.50125 0.0206169
1366 1 0.329951 0.494885 0.146593
191 1 0.668117 0.413334 0.906518
1743 1 0.98585 0.5118 0.0510623
62 1 0.280932 0.498123 0.955504
1627 1 0.399809 0.435559 0.0937855
1019 1 0.44829 0.459569 0.0341899
1845 1 0.219192 0.48285 0.103521
76 1 0.320346 0.413514 0.977175
267 1 0.504249 0.461592 0.827195
1012 1 0.593155 0.423844 0.0411625
1470 1 0.036581 0.631916 0.964045
150 1 0.162447 0.42262 0.134768
234 1 0.426423 0.680966 0.880443
291 1 0.684672 0.523071 0.943283
1632 1 0.84745 0.522317 0.937463
736 1 0.730017 0.420337 0.948746
1668 1 0.11256 0.589749 0.09
1808 1 0.152794 0.721214 0.119717
1429 1 0.300712 0.65668 0.0818422
1359 1 0.508352 0.711972 0.0296673
574 1 0.570421 0.605137 0.0810113
1871 1 0.702201 0.644114 0.957458
1723 1 0.109249 0.676227 0.968029
1647 1 0.469337 0.547535 0.875623
1318 1 0.689216 0.498927 0.0537041
612 1 0.794787 0.660179 0.980188
1327 1 0.96903 0.559474 0.135927
1974 1 0.0213381 0.715364 0.952102
1273 1 0.976624 0.718424 0.111933
1750 1 0.36636 0.75744 0.0121865
285 1 0.40754 0.614075 0.972028
839 1 0.516545 0.524045 0.941363
517 1 0.551977 0.645615 0.0104402
823 1 0.614994 0.588982 0.949103
1580 1 0.891633 0.603046 0.172712
373 1 0.848319 0.561528 0.00223333
1113 1 0.599939 0.506321 0.962741
333 1 0.0664755 0.831693 0.0469494
1008 1 0.185778 0.903286 0.148275
1163 1 0.210032 0.669549 0.960573
1684 1 0.468803 0.853432 0.0702133
136 1 0.607758 0.787866 0.897086
100 1 0.711979 0.767897 0.0200316
907 1 0.871511 0.818531 0.046191
340 1 0.803064 0.68507 0.196973
2018 1 0.989427 0.895879 0.225161
1792 1 0.183624 0.880653 0.998652
48 1 0.140139 0.859336 0.064657
881 1 0.482227 0.940247 0.139626
1417 1 0.660377 0.825567 0.934461
1944 1 0.748775 0.905129 0.0249311
998 1 0.938919 0.904846 0.0204344
1570 1 0.122031 0.958508 0.0641895
1291 1 0.580213 0.846773 0.00487168
648 1 0.986261 0.889899 0.108174
1825 1 0.973365 0.960349 0.983108
367 1 0.0863408 0.822663 0.132902
1431 1 0.225025 0.861434 0.0843484
660 1 0.204469 0.933628 0.0550604
1080 1 0.525432 0.0822806 0.0108633
683 1 0.581014 0.0578546 0.962355
485 1 0.741108 0.805767 0.275799
1915 1 0.796612 0.763167 0.04836
292 1 0.117383 0.962247 0.146807
768 1 0.148516 0.0309087 0.154274
677 1 0.195097 0.131971 0.193415
1101 1 0.284534 0.891255 0.158112
1482 1 0.369062 0.149997 0.885354
1797 1 0.561344 0.930111 0.00940247
787 1 0.466864 0.0219031 0.0107149
301 1 0.645075 0.081261 0.914441
145 1 0.0322976 0.968764 0.0781002
13 1 0.227392 0.0109044 0.966402
608 1 0.42904 0.00689157 0.0748482
828 1 0.624236 0.942054 0.963448
182 1 0.699788 0.964438 0.0839668
108 1 0.74097 0.29438 0.0287526
1076 1 0.86221 0.19567 0.995952
1708 1 0.158912 0.11479 0.13428
1418 1 0.967749 0.136981 0.926331
671 1 0.667416 0.0925315 0.0783102
119 1 0.910286 0.936649 0.0930924
1558 1 0.264431 0.174143 0.1947
942 1 0.229453 0.167735 0.12184
1695 1 0.291413 0.166507 0.266177
1082 1 0.368123 0.0525956 0.0581635
1150 1 0.743525 0.214657 0.0736331
1127 1 0.963576 0.317698 0.0921292
1350 1 0.608989 0.169749 0.0399098
1165 1 0.747895 0.184861 0.964369
1064 1 0.0417284 0.280906 0.925091
452 1 0.0951973 0.243104 0.888241
1123 1 0.0984079 0.277362 0.148593
1755 1 0.111275 0.19809 0.0300045
813 1 0.154932 0.186237 0.0977541
837 1 0.270786 0.295488 0.0747944
1377 1 0.335498 0.253774 0.0547826
2005 1 0.55882 0.219324 0.0851559
388 1 0.70964 0.2893 0.0979431
1106 1 0.873857 0.301722 0.0623029
365 1 0.65399 0.310505 0.0390456
149 1 0.191667 0.297674 0.138949
568 1 0.245676 0.383976 0.856754
884 1 0.442795 0.291062 0.946121
1375 1 0.600503 0.363343 0.0889995
1738 1 0.977958 0.38564 0.126218
1461 1 0.265018 0.271751 0.149807
1189 1 0.391272 0.517781 0.109321
503 1 0.435385 0.366209 0.951084
118 1 0.473768 0.239708 0.994044
1899 1 0.640562 0.378669 0.00747011
1650 1 0.776942 0.314012 0.14871
1731 1 0.0241002 0.303826 0.00925689
1338 1 0.107927 0.377669 0.0173056
443 1 0.150858 0.557162 0.0340936
1879 1 0.259617 0.371342 0.968974
476 1 0.418732 0.34073 0.0843901
129 1 0.717416 0.36713 0.127498
169 1 0.637632 0.399014 0.165529
1260 1 0.869152 0.447701 0.0808051
1763 1 0.112785 0.504452 0.0926496
1992 1 0.0603514 0.402732 0.147167
54 1 0.180375 0.403299 0.0605104
1657 1 0.306955 0.513314 0.217731
1107 1 0.535327 0.638965 0.161998
1994 1 0.555377 0.295027 0.0611021
692 1 0.987216 0.46058 0.985146
1200 1 0.381112 0.695571 0.0842202
417 1 0.434182 0.723719 0.000985919
716 1 0.47066 0.497052 0.0996229
573 1 0.754603 0.444576 0.0230387
1492 1 0.82307 0.518898 0.0619952
1144 1 0.891925 0.504947 0.0341148
1478 1 0.482928 0.316758 0.0149941
1445 1 0.960745 0.651214 0.968223
2020 1 0.0605401 0.521302 0.0246083
852 1 0.074463 0.757367 0.0205404
520 1 0.468601 0.674544 0.0875784
1562 1 0.236749 0.625681 0.284522
1496 1 0.528754 0.789215 0.000470616
880 1 0.522509 0.708884 0.127851
1263 1 0.69241 0.566088 0.250866
102 1 0.0391127 0.556534 0.112332
774 1 0.770183 0.641386 0.139559
558 1 0.117878 0.681605 0.0527693
1781 1 0.439986 0.743097 0.0756222
715 1 0.467035 0.655688 0.994319
734 1 0.651922 0.631884 0.103636
1191 1 0.921744 0.655326 0.0892343
194 1 0.00383427 0.77952 0.0477821
1210 1 0.0734391 0.780025 0.947008
1680 1 0.403808 0.880961 0.122487
1986 1 0.626986 0.646608 0.0246863
147 1 0.46312 0.666803 0.166215
758 1 0.861332 0.724347 0.0218138
363 1 0.840066 0.653383 0.113809
1625 1 0.123734 0.764061 0.182017
489 1 0.113075 0.886903 0.183784
1271 1 0.171779 0.896398 0.265551
1034 1 0.341577 0.837387 0.153594
1416 1 0.675655 0.889073 0.974159
2011 1 0.0178837 0.0180607 0.250139
1566 1 0.0362976 0.0049071 0.143941
439 1 0.399852 0.961171 0.1362
919 1 0.541334 0.946387 0.191298
1201 1 0.685663 0.0363486 0.0256319
1402 1 0.772047 0.0628715 0.0235094
739 1 0.844978 0.872174 0.203276
588 1 0.952452 0.82374 0.0763394
974 1 0.024629 0.933371 0.154769
1678 1 0.269415 0.957527 0.10782
969 1 0.62247 0.00743661 0.0760967
1460 1 0.763372 0.92287 0.0955502
1982 1 0.822651 0.914413 0.990091
1544 1 0.0242538 0.0785604 0.122931
1547 1 0.061903 0.0996022 0.280632
769 1 0.221024 0.0629997 0.0997624
218 1 0.348914 0.020892 0.129912
1067 1 0.841173 0.0679606 0.982392
978 1 0.767491 0.0187792 0.206005
1088 1 0.0717844 0.135136 0.0733206
1929 1 0.0797728 0.165732 0.227939
171 1 0.264145 0.094919 0.174392
1995 1 0.529597 0.0393983 0.194379
642 1 0.689898 0.87371 0.227904
1654 1 0.849766 0.0094158 0.240938
1560 1 0.832631 0.0324598 0.0794407
1877 1 0.312131 0.233915 0.232408
1434 1 0.201083 0.91692 0.340092
1744 1 0.588798 0.088704 0.0637581
423 1 0.477957 0.0145284 0.144732
1195 1 0.89403 0.26171 0.948534
1261 1 0.314579 0.116812 0.0523494
74 1 0.354985 0.18165 0.0748538
1411 1 0.271921 0.274223 0.286662
679 1 0.664921 0.0467012 0.139355
1343 1 0.624303 0.98642 0.165572
1585 1 0.0988431 0.425136 0.0809583
2014 1 0.992326 0.180532 0.104264
1153 1 0.281984 0.146854 0.336804
990 1 0.689833 0.0294859 0.218225
790 1 0.996649 0.242556 0.060938
1905 1 0.0405141 0.327744 0.15138
1035 1 0.15994 0.326006 0.0438775
626 1 0.395771 0.292718 0.0250114
703 1 0.455486 0.156762 0.0871746
1142 1 0.596483 0.284891 0.871668
707 1 0.846931 0.340899 0.143773
633 1 0.0921175 0.318072 0.972628
1916 1 0.274396 0.184613 0.0628709
1537 1 0.227944 0.227942 0.912716
1293 1 0.471954 0.161069 0.00819714
1400 1 0.728073 0.0339128 0.0896523
1274 1 0.670743 0.115084 0.203186
206 1 0.13939 0.456764 0.0187693
2042 1 0.163569 0.277358 0.207072
1257 1 0.363903 0.275043 0.182237
355 1 0.629225 0.13959 0.140782
718 1 0.740174 0.245243 0.237368
125 1 0.931898 0.520755 0.203094
1472 1 0.263043 0.545669 0.137006
2017 1 0.12365 0.368811 0.289971
6 1 0.266038 0.374753 0.2517
1466 1 0.3657 0.402297 0.15274
913 1 0.568957 0.347958 0.00229356
981 1 0.941279 0.397266 0.276752
224 1 0.0773607 0.477872 0.158502
1594 1 0.233186 0.507486 0.196493
1118 1 0.329888 0.567371 0.0720582
667 1 0.509837 0.574106 0.128179
688 1 0.48417 0.523123 0.0298688
1171 1 0.793399 0.37694 0.220199
168 1 0.815973 0.404551 0.126898
450 1 0.919116 0.439699 0.153907
407 1 0.181454 0.571632 0.187882
1092 1 0.222225 0.36473 0.156394
936 1 0.468895 0.592388 0.0585796
414 1 0.651846 0.321063 0.156157
260 1 0.759856 0.477392 0.0897481
213 1 0.801271 0.588474 0.0774298
1051 1 0.116258 0.649511 0.18394
34 1 0.38762 0.749216 0.152611
9 1 0.43043 0.579411 0.123143
433 1 0.439167 0.381883 0.205159
1831 1 0.72429 0.402736 0.203701
1011 1 0.782834 0.586171 0.95846
427 1 0.675573 0.5314 0.187223
725 1 0.0824614 0.892915 0.109999
1325 1 0.114776 0.576994 0.254453
951 1 0.616727 0.768238 0.195343
288 1 0.717042 0.381477 0.0506232
58 1 0.722247 0.693647 0.021069
250 1 0.728851 0.681898 0.211741
1370 1 0.921026 0.57775 0.0205087
1245 1 0.46889 0.854575 0.159798
825 1 0.549146 0.558361 0.00835541
1977 1 0.573483 0.531487 0.118104
639 1 0.623147 0.545174 0.0222474
2030 1 0.904338 0.757635 0.0758913
1557 1 0.168091 0.644299 0.239163
163 1 0.249239 0.724513 0.0992211
895 1 0.559519 0.492345 0.0470523
1029 1 0.65287 0.718876 0.043441
473 1 0.91432 0.836959 0.211951
1408 1 0.996715 0.62135 0.100171
971 1 0.192315 0.682957 0.175662
1132 1 0.293093 0.675671 0.162364
184 1 0.230286 0.757791 0.163446
432 1 0.480112 0.81941 0.23047
186 1 0.540777 0.906701 0.0819062
538 1 0.742262 0.873055 0.162473
552 1 0.48664 0.9528 0.0309816
686 1 0.546159 0.802347 0.157495
92 1 0.557517 0.879652 0.154579
866 1 0.795376 0.852913 0.0816891
1447 1 0.917042 0.101182 0.337871
201 1 0.250327 0.935311 0.283619
1437 1 0.365086 0.904726 0.195113
1268 1 0.859015 0.834119 0.131535
944 1 0.0989508 0.954147 0.290479
1805 1 0.214888 0.859216 0.207436
289 1 0.429528 0.996131 0.198854
354 1 0.606308 0.933734 0.114492
311 1 0.63992 0.784254 0.316834
1172 1 0.984601 0.0748715 0.063899
137 1 0.899326 0.973867 0.00475059
680 1 0.968056 0.979515 0.119692
655 1 0.0723262 0.137765 0.153066
3 1 0.193167 0.0673163 0.240133
1002 1 0.664858 0.809649 0.248575
1519 1 0.715422 0.855664 0.0776857
533 1 0.826231 0.961031 0.0555092
1803 1 0.89896 0.180385 0.155719
195 1 0.0982824 0.0799417 0.19596
870 1 0.318473 0.065521 0.214899
1209 1 0.289497 0.0192715 0.0435824
351 1 0.837063 0.105142 0.0572828
614 1 0.972665 0.190569 0.178226
1505 1 0.143795 0.0983059 0.285328
980 1 0.249229 0.0738493 0.00226895
244 1 0.303948 0.222481 0.357351
1591 1 0.36675 0.115877 0.259359
1883 1 0.78408 0.988424 0.137433
1504 1 0.85083 0.0277689 0.158231
1646 1 0.793924 0.944684 0.20444
521 1 0.74295 0.0881117 0.192338
799 1 0.783694 0.1227 0.289867
1227 1 0.851926 0.146296 0.214861
188 1 0.0575244 0.231595 0.324645
1235 1 0.56244 0.00784122 0.0236482
1618 1 0.695605 0.964263 0.164282
1751 1 0.94284 0.282275 0.0250335
1970 1 0.829387 0.182494 0.0918903
1521 1 0.0779489 0.255567 0.229903
221 1 0.199457 0.226983 0.161309
986 1 0.474949 0.0738878 0.0709623
1572 1 0.812672 0.263783 0.0992546
312 1 0.800941 0.220581 0.0310869
1054 1 0.103314 0.345018 0.0895733
1105 1 0.0520726 0.295959 0.287236
556 1 0.28387 0.509285 0.0716964
1858 1 0.340868 0.351715 0.0845026
1283 1 0.483431 0.227611 0.0713115
1442 1 0.546636 0.274017 0.988667
1040 1 0.664301 0.195015 0.0972597
2000 1 0.530815 0.136659 0.0645288
712 1 0.786495 0.340705 0.0674286
570 1 0.85528 0.10724 0.137332
1308 1 0.0544395 0.349941 0.336398
1154 1 0.492915 0.263422 0.136782
1022 1 0.746112 0.244944 0.149159
298 1 0.129266 0.343746 0.168455
1453 1 0.121599 0.420299 0.199564
116 1 0.29677 0.371358 0.165035
1371 1 0.355311 0.194812 0.290283
1859 1 0.672937 0.245954 0.163343
1322 1 0.985678 0.229077 0.986468
377 1 0.432927 0.543173 0.189638
1409 1 0.487668 0.169325 0.175581
1016 1 0.888797 0.388567 0.203215
4 1 0.874248 0.317722 0.22184
444 1 0.0379451 0.535015 0.319805
372 1 0.051802 0.432797 0.220463
2002 1 0.13367 0.492084 0.230316
915 1 0.359669 0.359928 0.217491
1427 1 0.786607 0.460466 0.239728
1919 1 0.931529 0.204795 0.0304727
1509 1 0.185956 0.551667 0.0985236
705 1 0.242874 0.635015 0.122466
699 1 0.53478 0.761664 0.222722
1612 1 0.365056 0.554606 0.260418
174 1 0.885388 0.588176 0.0942654
877 1 0.99902 0.492112 0.151481
1136 1 0.255723 0.599264 0.190409
1780 1 0.272384 0.795222 0.0212581
1086 1 0.55922 0.425501 0.112007
53 1 0.649054 0.547779 0.099691
86 1 0.807295 0.542554 0.141751
491 1 0.0263323 0.552967 0.186035
328 1 0.996275 0.599687 0.0201039
1013 1 0.24284 0.675753 0.345448
1421 1 0.389497 0.653197 0.144261
1037 1 0.61497 0.558802 0.242483
1924 1 0.612223 0.476868 0.160253
1660 1 0.758818 0.760058 0.207306
1177 1 0.850333 0.432466 0.267882
1939 1 0.57717 0.766003 0.0800547
1685 1 0.710416 0.681204 0.111784
2039 1 0.697715 0.613768 0.170035
1633 1 0.0269458 0.721949 0.185312
872 1 0.324456 0.76812 0.0954245
1878 1 0.453567 0.735958 0.195827
771 1 0.420213 0.79051 0.281625
68 1 0.0417273 0.628496 0.175849
105 1 0.984365 0.812581 0.224825
1087 1 0.125493 0.707635 0.245833
1822 1 0.11481 0.82615 0.246678
638 1 0.607053 0.700249 0.110981
1091 1 0.73123 0.784519 0.0995512
1351 1 0.911316 0.766279 0.156011
1876 1 0.00521585 0.943709 0.27929
621 1 0.177638 0.98847 0.217331
827 1 0.0900924 0.882876 0.441506
934 1 0.267316 0.789535 0.2306
280 1 0.304361 0.755878 0.17571
1289 1 0.658637 0.896097 0.0481212
187 1 0.0728513 0.885245 0.250713
197 1 0.41012 0.914884 0.922974
1328 1 0.695278 0.814271 0.161781
543 1 0.794256 0.729022 0.272585
1315 1 0.913926 0.0198871 0.204385
1487 1 0.963053 0.12119 0.150137
2043 1 0.130091 0.0365504 0.327736
493 1 0.237136 0.934429 0.208882
1240 1 0.293732 0.903935 0.36021
1499 1 0.44502 0.910675 0.201827
1103 1 0.396167 0.861027 0.255303
436 1 0.619444 0.850067 0.187603
1167 1 0.835282 0.90797 0.121606
1396 1 0.914956 0.104011 0.20219
824 1 0.172314 0.829783 0.144699
1645 1 0.526082 0.994238 0.0893318
1823 1 0.922103 0.894195 0.157132
727 1 0.217199 0.147356 0.260978
104 1 0.276508 0.0776609 0.281239
591 1 0.362943 0.00550152 0.235181
67 1 0.61815 0.921954 0.204435
1746 1 0.787516 0.0685487 0.135772
523 1 0.960094 0.165117 0.318015
497 1 0.34585 0.996647 0.454569
1244 1 0.440033 0.161812 0.353835
1001 1 0.423203 0.0525181 0.262501
1641 1 0.496564 0.100762 0.137874
1959 1 0.55125 0.983945 0.313745
681 1 0.971485 0.254667 0.135671
1640 1 0.115706 0.202808 0.169656
1710 1 0.460911 0.163865 0.261354
555 1 0.41253 0.135273 0.204713
270 1 0.58923 0.0256809 0.267557
1556 1 0.515842 0.176549 0.326768
1705 1 0.7428 0.0471628 0.272253
1617 1 0.842872 0.222415 0.242357
1851 1 0.939948 0.240489 0.283018
1304 1 0.656899 0.185441 0.21102
1121 1 0.705206 0.241027 0.302878
882 1 0.639482 0.269524 0.382148
888 1 0.152333 0.200336 0.238084
229 1 0.402266 0.253563 0.102817
1526 1 0.773707 0.310621 0.308897
1619 1 0.86754 0.383111 0.366963
275 1 0.839439 0.22131 0.162335
536 1 0.12813 0.260763 0.307107
899 1 0.204819 0.377761 0.322847
1696 1 0.397357 0.218051 0.226242
1147 1 0.403484 0.189812 0.152753
1299 1 0.512364 0.328333 0.193834
339 1 0.757466 0.172442 0.238255
624 1 0.187147 0.348506 0.223984
859 1 0.493088 0.333184 0.0913933
792 1 0.622823 0.259547 0.107598
350 1 0.634553 0.280422 0.223747
1966 1 0.840532 0.347531 0.287348
1395 1 0.972117 0.292729 0.410729
834 1 0.597467 0.339292 0.257501
1874 1 0.108338 0.552801 0.181067
65 1 0.0604905 0.515805 0.244887
604 1 0.192057 0.536086 0.250379
415 1 0.333469 0.314747 0.357318
18 1 0.461875 0.385738 0.132373
595 1 0.426955 0.495486 0.305635
1742 1 0.662781 0.382796 0.263744
802 1 0.767951 0.46011 0.166547
1996 1 0.852592 0.46681 0.183341
445 1 0.136222 0.51759 0.304268
861 1 0.364788 0.271203 0.27882
1604 1 0.553397 0.495843 0.226396
1062 1 0.00246757 0.458669 0.279079
113 1 0.0364484 0.47875 0.455187
1656 1 0.405892 0.703566 0.268476
1324 1 0.473653 0.640216 0.238854
1053 1 0.991929 0.677446 0.24332
274 1 0.0664771 0.669944 0.114442
226 1 0.170668 0.5874 0.302855
212 1 0.314657 0.697422 0.275016
1531 1 0.246298 0.671535 0.230055
341 1 0.441184 0.571011 0.27579
316 1 0.695021 0.464439 0.141601
419 1 0.757158 0.523826 0.0259289
64 1 0.722532 0.548932 0.131618
442 1 0.969322 0.589473 0.221245
47 1 0.40096 0.540275 0.404547
1276 1 0.650609 0.439396 0.0819245
724 1 0.951396 0.720828 0.196901
1439 1 0.855039 0.507373 0.254065
550 1 0.976241 0.812174 0.14788
1194 1 0.0588354 0.729228 0.492074
2033 1 0.409066 0.614556 0.210485
1510 1 0.584968 0.640597 0.258962
704 1 0.788224 0.81301 0.146986
435 1 0.764058 0.876737 0.239708
747 1 0.962706 0.641621 0.169176
1999 1 0.842445 0.919877 0.453588
233 1 0.103726 0.803816 0.356344
1704 1 0.0592862 0.785939 0.209548
479 1 0.235606 0.595877 0.366918
1348 1 0.644772 0.779658 0.103111
1174 1 0.652568 0.673924 0.202012
797 1 0.66953 0.873073 0.315649
134 1 0.187786 0.746678 0.233271
17 1 0.356574 0.688982 0.205786
1786 1 0.571264 0.692668 0.206028
2004 1 0.0636816 0.959525 0.221136
246 1 0.917042 0.807576 0.282133
1793 1 0.983685 0.977781 0.194595
1610 1 0.140091 0.653456 0.325873
2024 1 0.409354 0.812048 0.185172
420 1 0.478818 0.776442 0.133711
1469 1 0.571964 0.807838 0.266909
1253 1 0.13809 0.877013 0.326564
1081 1 0.186182 0.808729 0.27974
1782 1 0.314729 0.969137 0.186134
676 1 0.676322 0.895349 0.135656
1779 1 0.818593 0.807082 0.288332
2035 1 0.793817 0.0657097 0.393355
1014 1 0.917333 0.169142 0.253421
548 1 0.242945 0.00885317 0.250114
418 1 0.394129 0.916497 0.325035
689 1 0.580149 0.0484722 0.129365
1565 1 0.78513 0.98176 0.29057
185 1 0.817345 0.0760868 0.210829
1074 1 0.208692 0.0536057 0.313869
1756 1 0.646841 0.973213 0.257818
1516 1 0.716644 0.22705 0.395703
1869 1 0.991117 0.0869108 0.301637
1066 1 0.928497 0.0384589 0.107029
103 1 0.198607 0.225081 0.319485
338 1 0.352848 0.912977 0.405783
151 1 0.506012 0.0409536 0.26798
38 1 0.773987 0.20598 0.306142
410 1 0.999594 0.283426 0.219238
1932 1 0.161339 0.225879 0.391242
1099 1 0.117982 0.172637 0.29991
1514 1 0.740776 0.102773 0.441542
1225 1 0.290231 0.274939 0.407031
1068 1 0.337163 0.137975 0.192607
324 1 0.613482 0.163285 0.277986
1548 1 0.689707 0.382137 0.377893
352 1 0.908255 0.165865 0.490517
665 1 0.918214 0.233942 0.526338
1479 1 0.91809 0.308087 0.156029
1241 1 0.148044 0.324345 0.361536
1143 1 0.357512 0.144736 0.347527
1401 1 0.863325 0.274327 0.299266
714 1 0.829548 0.315653 0.38462
953 1 0.908818 0.249339 0.21043
1606 1 0.907835 0.379733 0.0899805
561 1 0.321588 0.336789 0.286076
995 1 0.305943 0.146622 0.123119
1934 1 0.425101 0.47141 0.15816
1546 1 0.590106 0.147547 0.20195
1961 1 0.599566 0.332402 0.340358
80 1 0.97772 0.353172 0.202226
1620 1 0.0214003 0.370734 0.2599
1964 1 0.290004 0.309803 0.219308
112 1 0.444364 0.410503 0.276478
2007 1 0.49977 0.247242 0.298629
446 1 0.56726 0.298882 0.143035
646 1 0.543724 0.261451 0.216847
1794 1 0.779425 0.375385 0.358308
342 1 0.98153 0.363073 0.369148
589 1 0.0874129 0.33859 0.233727
268 1 0.317327 0.4388 0.205872
780 1 0.360557 0.558357 0.176298
1337 1 0.443842 0.313977 0.168099
1921 1 0.917199 0.474201 0.277988
1679 1 0.889371 0.636609 0.235763
1937 1 0.901445 0.234189 0.0978975
1285 1 0.280315 0.490622 0.361064
416 1 0.560626 0.393359 0.225505
1385 1 0.810623 0.281783 0.211664
261 1 0.130103 0.455497 0.37504
1041 1 0.400395 0.474356 0.236861
584 1 0.524196 0.574872 0.266076
395 1 0.39546 0.403754 0.433597
343 1 0.795141 0.4462 0.321047
1675 1 0.268012 0.552759 0.278038
209 1 0.644427 0.452185 0.238945
1828 1 0.553722 0.567635 0.195726
248 1 0.690802 0.457135 0.303574
22 1 0.817408 0.600029 0.202861
1958 1 0.921306 0.903542 0.398869
1942 1 0.148649 0.724757 0.356102
323 1 0.310258 0.630094 0.233749
1649 1 0.603245 0.502769 0.313658
7 1 0.944285 0.719067 0.356891
1502 1 0.00595317 0.612756 0.290351
1891 1 0.0315138 0.800252 0.28236
1378 1 0.980282 0.854811 0.287309
627 1 0.750385 0.664704 0.348189
674 1 0.0281402 0.840425 0.370056
1386 1 0.0471247 0.719022 0.268708
1454 1 0.946851 0.718998 0.48582
1208 1 0.20246 0.452621 0.356471
1985 1 0.539031 0.730278 0.42226
563 1 0.668659 0.642709 0.285385
1476 1 0.881918 0.731668 0.271213
1009 1 0.301981 0.62441 0.335734
398 1 0.694192 0.735157 0.166514
924 1 0.870163 0.864426 0.302283
1109 1 0.918797 0.926601 0.228098
1804 1 0.924063 0.923062 0.303024
1814 1 0.848133 0.124597 0.367096
1768 1 0.927673 0.767252 0.42665
2040 1 0.198022 0.69732 0.288851
330 1 0.500503 0.788181 0.319189
868 1 0.692302 0.723215 0.352448
770 1 0.620924 0.603965 0.169283
11 1 0.726875 0.956998 0.237799
297 1 0.848109 0.775454 0.213066
166 1 0.0627644 0.884594 0.32124
370 1 0.0606584 0.934043 0.388843
380 1 0.0726644 0.794743 0.442152
1601 1 0.362309 0.762104 0.227484
1841 1 0.0158537 0.126905 0.214716
366 1 0.313935 0.860296 0.224177
1489 1 0.453614 0.864023 0.306211
1693 1 0.522192 0.91268 0.330137
757 1 0.643887 0.82464 0.389052
1673 1 0.817102 0.845193 0.380389
1990 1 0.854072 0.162589 0.296128
1555 1 0.244904 0.862861 0.281223
1026 1 0.219415 0.0869408 0.403528
606 1 0.491784 0.937136 0.4029
940 1 0.326306 0.914557 0.278626
760 1 0.606368 0.899556 0.280064
856 1 0.667524 0.0598161 0.282807
618 1 0.811163 0.0560103 0.315
1726 1 0.925438 0.152302 0.393396
850 1 0.0963641 0.0285105 0.262343
1138 1 0.1372 0.0906431 0.380501
500 1 0.248429 0.980594 0.354478
583 1 0.30417 0.00240037 0.299115
1372 1 0.409277 0.948804 0.2579
664 1 0.516354 0.882095 0.258787
331 1 0.665157 0.954623 0.520125
384 1 0.828346 0.200382 0.374476
449 1 0.030771 0.155157 0.338952
698 1 0.0894768 0.169379 0.383948
811 1 0.0502241 0.0785306 0.362008
1955 1 0.300892 0.856039 0.424827
1837 1 0.721849 0.0572092 0.347494
993 1 0.481718 0.105607 0.215553
1951 1 0.466744 0.0962004 0.399553
2012 1 0.908779 0.222359 0.358771
448 1 0.930149 0.229647 0.435362
1747 1 0.00506002 0.155242 0.423982
317 1 0.294033 0.0854895 0.476974
597 1 0.365824 0.1169 0.425899
955 1 0.55423 0.104597 0.279563
988 1 0.780496 0.261158 0.368209
1910 1 0.991785 0.225074 0.361046
765 1 0.224357 0.231715 0.236268
1124 1 0.373038 0.109025 0.119518
1414 1 0.629553 0.237724 0.294457
211 1 0.940022 0.317416 0.2763
613 1 0.979334 0.190061 0.491661
729 1 0.988731 0.295175 0.331013
843 1 0.365593 0.332196 0.419989
826 1 0.23038 0.180411 0.395985
1554 1 0.425557 0.241029 0.315987
1334 1 0.543907 0.383793 0.317974
1904 1 0.573769 0.0502891 0.337687
358 1 0.013953 0.44681 0.363258
1202 1 0.345895 0.423186 0.283384
1410 1 0.498583 0.430156 0.203231
1017 1 0.0281338 0.372698 0.0722884
958 1 0.274657 0.415477 0.318286
903 1 0.2572 0.433989 0.150695
1050 1 0.421375 0.278237 0.440162
1500 1 0.519783 0.4007 0.0536175
1131 1 0.737945 0.32659 0.238414
1842 1 0.91207 0.552265 0.294932
1843 1 0.735451 0.382122 0.292342
1599 1 0.0878259 0.384803 0.400579
1166 1 0.361025 0.65558 0.378208
1936 1 0.35015 0.503736 0.319792
775 1 0.860357 0.785731 0.344302
1909 1 0.937218 0.42615 0.354274
217 1 0.976176 0.428488 0.210417
1356 1 0.0226111 0.357313 0.434048
1407 1 0.15167 0.362112 0.447916
967 1 0.395454 0.430444 0.346335
721 1 0.476561 0.497203 0.244636
1550 1 0.76363 0.623806 0.275813
1310 1 0.084414 0.460957 0.29987
220 1 0.141375 0.543928 0.389996
1102 1 0.441783 0.65016 0.306379
1363 1 0.523702 0.484812 0.154112
910 1 0.766666 0.543858 0.214413
2025 1 0.982196 0.529285 0.264973
199 1 0.962152 0.514555 0.342195
1199 1 0.0812877 0.593315 0.3544
2038 1 0.774104 0.533236 0.290373
1311 1 0.829291 0.7843 0.434586
167 1 0.777831 0.729615 0.386283
1602 1 0.0134522 0.738894 0.430316
466 1 0.0859951 0.42325 0.471515
190 1 5.29133e-05 0.770805 0.357842
547 1 0.129949 0.701028 0.462078
1957 1 0.365356 0.650808 0.301837
1465 1 0.446573 0.736772 0.32525
2028 1 0.583572 0.57687 0.317767
1605 1 0.734795 0.911702 0.296938
726 1 0.966538 0.747798 0.275688
29 1 0.113372 0.653979 0.401275
1084 1 0.417308 0.650131 0.45862
812 1 0.30951 0.71056 0.349347
1173 1 0.518701 0.717285 0.349043
1681 1 0.384528 0.570558 0.33188
1197 1 0.63604 0.721502 0.267748
794 1 0.10973 0.761463 0.298148
921 1 0.573378 0.742087 0.306317
1229 1 0.86978 0.951179 0.174748
1436 1 0.255761 0.746931 0.395241
693 1 0.17951 0.803831 0.365067
1629 1 0.24622 0.760708 0.300325
1168 1 0.367278 0.755759 0.3258
1111 1 0.827716 0.91515 0.26182
1277 1 0.0371711 0.00485607 0.32209
1817 1 0.318722 0.797192 0.282603
471 1 0.521306 0.78999 0.464217
1252 1 0.483197 0.965209 0.242762
625 1 0.507318 0.857342 0.388249
1152 1 0.617097 0.839238 0.46303
1039 1 0.177786 0.978742 0.296647
1440 1 0.152692 0.866919 0.401219
1720 1 0.378707 0.851395 0.438488
89 1 0.402403 0.770597 0.432034
97 1 0.870087 0.0852762 0.267217
842 1 0.940525 0.0363625 0.272598
741 1 0.594492 0.846975 0.332713
635 1 0.708001 0.987533 0.306317
1583 1 0.686875 0.134233 0.276109
700 1 0.944371 0.0239627 0.348369
1898 1 0.964962 0.978442 0.48849
973 1 0.331884 0.977645 0.365805
1636 1 0.462114 0.995462 0.311893
1806 1 0.620542 0.963518 0.339658
1717 1 0.600973 0.0583957 0.204795
1097 1 0.228475 0.877152 0.398652
1611 1 0.608308 0.0452603 0.437221
255 1 0.625946 0.972645 0.414602
378 1 0.675464 0.0838552 0.592047
306 1 0.648964 0.108559 0.458266
40 1 0.741579 0.149501 0.363998
453 1 0.970459 0.0274447 0.433723
1838 1 0.0676358 0.00123722 0.602709
1697 1 0.202481 0.123501 0.339884
1280 1 0.332345 0.0612427 0.359829
1005 1 0.380558 0.00062929 0.313408
2034 1 0.934639 0.0907059 0.469435
45 1 0.0205187 0.209783 0.251397
1264 1 0.503321 0.0371496 0.363188
1456 1 0.666722 0.312651 0.307778
146 1 0.625529 0.105566 0.326817
1329 1 0.903336 0.290604 0.579344
1512 1 0.0185857 0.100349 0.471796
530 1 0.202034 0.282678 0.425134
750 1 0.469402 0.23649 0.216299
1711 1 0.47936 0.106524 0.3141
989 1 0.54669 0.197703 0.261948
1689 1 0.59044 0.175932 0.352319
1975 1 0.971353 0.279009 0.490344
1024 1 0.292062 0.360465 0.415922
962 1 0.676249 0.181362 0.336318
504 1 0.80861 0.291516 0.450307
258 1 0.918916 0.327278 0.509411
735 1 0.97239 0.423521 0.429219
1419 1 0.247444 0.32584 0.36231
1104 1 0.121374 0.283625 0.430324
1072 1 0.672725 0.48722 0.462147
70 1 0.633294 0.410437 0.331737
1630 1 0.816946 0.474658 0.481515
611 1 0.855773 0.360778 0.451243
1223 1 0.845385 0.208496 0.446212
1946 1 0.10458 0.322964 0.548203
851 1 0.436779 0.345065 0.502071
14 1 0.681368 0.557607 0.42107
1967 1 0.673627 0.484256 0.384767
1785 1 0.907796 0.303548 0.357168
1666 1 0.172941 0.43662 0.278211
904 1 0.462498 0.481823 0.465714
1497 1 0.643482 0.337173 0.422443
1302 1 0.545744 0.453124 0.287535
661 1 0.715681 0.488592 0.235908
1149 1 0.888741 0.565749 0.370521
1467 1 0.0539544 0.281923 0.487723
133 1 0.110942 0.499598 0.450158
496 1 0.326785 0.566011 0.382654
947 1 0.529226 0.517546 0.325403
1140 1 0.615991 0.618189 0.399453
1287 1 0.828995 0.662712 0.271884
239 1 0.018044 0.546107 0.483045
631 1 0.00445346 0.424146 0.499614
865 1 0.998241 0.686711 0.313421
1025 1 0.197714 0.494453 0.421049
334 1 0.490058 0.441824 0.340616
1415 1 0.776235 0.933103 0.35689
1836 1 0.956836 0.60506 0.355966
177 1 0.0780699 0.647692 0.256826
874 1 0.464862 0.548017 0.352438
1477 1 0.440071 0.478489 0.385908
183 1 0.410275 0.44067 0.504721
1621 1 0.539664 0.651011 0.412952
883 1 0.230533 0.649589 0.498149
937 1 0.483298 0.716488 0.262722
1247 1 0.515707 0.641228 0.338809
1523 1 0.654781 0.574449 0.350807
1254 1 0.720951 0.753205 0.528932
269 1 0.935706 0.829397 0.350854
84 1 0.605415 0.6648 0.526827
713 1 0.861635 0.699843 0.339665
789 1 0.94326 0.898782 0.482797
1423 1 0.328088 0.785949 0.396168
751 1 0.597936 0.687567 0.360154
1819 1 0.513911 0.770688 0.540637
431 1 0.887106 0.987778 0.321956
867 1 0.81212 0.992673 0.457749
130 1 0.990319 0.780252 0.498029
1255 1 0.891787 0.0573089 0.400643
793 1 0.177656 0.945034 0.421832
272 1 0.301525 0.732498 0.516877
669 1 0.330991 0.835577 0.549623
73 1 0.760322 0.794373 0.350961
1881 1 0.715082 0.723735 0.279375
346 1 0.676542 0.115776 0.385329
902 1 0.274932 0.832032 0.341792
1162 1 0.338909 0.71268 0.443345
1122 1 0.467572 0.763679 0.392364
314 1 0.53762 0.684425 0.487412
531 1 0.724778 0.0145654 0.556156
225 1 0.0542001 0.0381025 0.435315
1840 1 0.154309 0.830744 0.470263
820 1 0.414488 0.813175 0.363123
1367 1 0.642204 0.896045 0.416478
773 1 0.802071 0.940474 0.510062
767 1 0.978588 0.0887364 0.385742
943 1 0.127857 0.886676 0.516281
749 1 0.158369 0.0656948 0.460529
200 1 0.452581 0.833262 0.458896
1694 1 0.687911 0.0431178 0.42944
1600 1 0.189564 0.0198467 0.382872
1459 1 0.101359 0.120231 0.44761
88 1 0.695812 0.942212 0.440442
1511 1 0.775019 0.061511 0.502439
1503 1 0.995585 0.0315706 0.53547
1211 1 0.286541 0.776807 0.459369
1079 1 0.407029 0.0874749 0.518735
110 1 0.573592 0.10773 0.387753
931 1 0.78806 0.211277 0.567135
1850 1 0.131377 0.203572 0.471048
1799 1 0.176335 0.150167 0.444355
1928 1 0.320953 0.140281 0.514829
1872 1 0.419001 0.983608 0.496354
518 1 0.396558 0.158336 0.475921
1164 1 0.611171 0.18646 0.437211
309 1 0.767269 0.188019 0.429713
819 1 0.818384 0.122628 0.448571
490 1 0.201186 0.203563 0.50135
389 1 0.188246 0.226405 0.621207
949 1 0.321235 0.204387 0.442048
701 1 0.192513 0.301308 0.308195
214 1 0.542731 0.123894 0.456339
764 1 0.48997 0.239097 0.374929
1844 1 0.719544 0.312308 0.369145
1769 1 0.0455282 0.20971 0.452189
1945 1 0.442505 0.236357 0.561661