ITEM: TIMESTEP
100000
ITEM: NUMBER OF ATOMS
2048
ITEM: BOX BOUNDS pp pp pp
0.0000000000000000e+00 1.3153131063095840e+01
0.0000000000000000e+00 1.3153131063095840e+01
0.0000000000000000e+00 1.3153131063095840e+01
ITEM: ATOMS id type xs ys zs
1803 1 0.064374 0.0332235 0.011755
1772 1 0.352695 0.0165962 0.0126312
438 1 0.547703 0.0341326 0.0174188
1613 1 0.618561 0.0429144 0.0204853
861 1 0.754067 0.0356094 0.0267843
1798 1 0.919114 0.0433817 0.0236603
1079 1 0.99074 0.0302972 0.0476637
464 1 0.119436 0.0873858 0.0279668
985 1 0.226596 0.0544294 0.0416737
755 1 0.468079 0.0740924 0.0485484
875 1 0.077086 0.143785 0.0218059
604 1 0.208619 0.134597 0.0187107
1203 1 0.402386 0.104685 0.0285449
773 1 0.620237 0.132625 0.0126655
95 1 0.716623 0.131254 0.0445229
1877 1 0.298128 0.157225 0.0105684
1588 1 0.373526 0.195413 0.0117753
1697 1 0.570521 0.187834 0.0345366
903 1 0.877261 0.17356 0.0220878
1232 1 0.995241 0.181038 0.0120862
1582 1 0.095193 0.219516 0.0371554
178 1 0.167117 0.238826 0.0467733
1423 1 0.304394 0.230967 0.000743544
1899 1 0.493599 0.217349 0.0479539
327 1 0.710673 0.224675 0.0321132
595 1 0.0210945 0.256027 0.020508
737 1 0.363583 0.267843 0.0205155
1368 1 0.553263 0.274581 0.0414969
1416 1 0.94196 0.263127 0.0148279
1187 1 0.189885 0.307761 0.0186377
998 1 0.27238 0.31213 0.0280188
1422 1 0.457423 0.337895 0.0191862
1451 1 0.848011 0.313217 0.0387671
757 1 0.920138 0.348931 0.0140008
1722 1 0.0630502 0.389512 0.0386046
355 1 0.144904 0.38681 0.018434
1967 1 0.521222 0.37628 0.0100902
113 1 0.633931 0.36704 0.0116037
1523 1 0.715372 0.355835 0.0435221
517 1 0.345612 0.43863 0.0108517
417 1 0.466289 0.43677 0.0287799
46 1 0.678109 0.434409 0.025187
1742 1 0.782775 0.409314 0.0179181
625 1 0.860915 0.446528 0.021877
1621 1 0.971909 0.416054 0.0370213
1756 1 0.00818818 0.491677 0.00829184
1139 1 0.0867654 0.456325 0.000149573
146 1 0.266467 0.462336 0.0426091
1298 1 0.0703657 0.527816 0.0449452
440 1 0.144241 0.507493 0.0384183
1484 1 0.266905 0.541139 0.0366173
1252 1 0.35469 0.542785 0.00586319
1580 1 0.427545 0.548057 0.0460345
672 1 0.587987 0.524544 0.00288682
1319 1 0.736901 0.503183 0.0310314
1893 1 0.816439 0.523672 0.0189722
1753 1 0.00703494 0.569666 0.0215917
992 1 0.794004 0.59279 0.00697105
59 1 0.886415 0.559839 0.00267379
1494 1 0.281104 0.649067 0.0383273
1901 1 0.354701 0.649923 0.04774
1081 1 0.551824 0.628469 0.016411
590 1 0.624373 0.604246 0.0216895
917 1 0.69941 0.629828 0.04368
1573 1 0.855128 0.637361 0.0287759
557 1 0.0129789 0.69259 0.0105362
1040 1 0.152931 0.66006 0.0114603
1354 1 0.442622 0.654961 0.0304368
1560 1 0.654095 0.684004 0.0370384
1305 1 0.11211 0.720881 0.036125
673 1 0.23806 0.712468 0.0403323
955 1 0.548233 0.705294 0.00163835
215 1 0.610264 0.747044 0.00863226
206 1 0.715304 0.733865 0.00684794
682 1 0.161983 0.769242 0.0373533
730 1 0.236633 0.784077 0.00847167
459 1 0.351414 0.760456 0.0216818
858 1 0.450625 0.768873 0.0245018
466 1 0.779214 0.780897 0.00934553
1669 1 0.854883 0.790985 0.0270809
1992 1 0.0653534 0.823556 0.0279195
839 1 0.130414 0.847239 0.00825149
1498 1 0.701269 0.808521 0.0311101
667 1 0.913261 0.838714 0.00235145
1576 1 0.99347 0.818863 0.0192821
851 1 0.200082 0.855447 0.00267088
507 1 0.280055 0.864397 0.0417719
257 1 0.411773 0.889555 0.0258856
1702 1 0.74157 0.879323 0.0182295
780 1 0.860084 0.882937 0.0230546
473 1 0.963531 0.891556 0.0222574
152 1 0.0752697 0.903155 0.00273617
1477 1 0.29505 0.93595 0.043882
485 1 0.541549 0.901262 0.0364035
1391 1 0.67298 0.922174 0.0187963
228 1 0.198419 0.98651 0.0210125
1251 1 0.516223 0.967813 0.0440725
1322 1 0.589532 0.969688 0.0411435
491 1 0.659511 0.990013 0.0499999
1274 1 0.866943 0.964323 0.0110626
702 1 0.962891 0.962979 0.0468751
797 1 0.150805 0.0273549 0.0581995
1259 1 0.295741 0.0354762 0.0671535
498 1 0.433379 0.01241 0.0816809
1948 1 0.818542 0.0385687 0.068774
1577 1 0.0541082 0.0750092 0.0831234
187 1 0.575135 0.0802588 0.0700592
2025 1 0.680653 0.0657882 0.0556919
763 1 0.745378 0.0747356 0.0939737
28 1 0.142921 0.146068 0.0599126
1651 1 0.28596 0.115145 0.0753335
930 1 0.355557 0.147263 0.072652
1984 1 0.515769 0.142862 0.0543381
1556 1 0.881476 0.105312 0.0573632
1957 1 0.953253 0.116357 0.063396
1504 1 0.208309 0.188878 0.076179
1998 1 0.443456 0.151821 0.0877329
914 1 0.66802 0.193024 0.0860285
1253 1 0.810685 0.186721 0.060036
168 1 0.0357409 0.200602 0.0847753
1457 1 0.393704 0.230101 0.0998677
140 1 0.860701 0.244487 0.0764057
675 1 0.934274 0.209025 0.070558
128 1 0.0954486 0.27932 0.0917833
969 1 0.233121 0.268612 0.0711154
1955 1 0.309213 0.25377 0.0691143
856 1 0.432357 0.285618 0.0764288
1182 1 0.642363 0.263322 0.0562344
1636 1 0.713576 0.2881 0.0877965
646 1 0.779996 0.254361 0.0724507
132 1 0.956939 0.2955 0.0762195
1448 1 0.0290488 0.324073 0.0536541
4 1 0.149407 0.334266 0.085891
833 1 0.359747 0.301803 0.0945259
707 1 0.550037 0.342931 0.0765749
196 1 0.0158342 0.394186 0.098812
561 1 0.227744 0.364452 0.0649451
398 1 0.310594 0.381649 0.0744737
149 1 0.389287 0.391211 0.0604175
137 1 0.622471 0.394457 0.0805227
458 1 0.790015 0.364899 0.0827778
499 1 0.186011 0.434555 0.0817081
190 1 0.737494 0.421794 0.0953985
2021 1 0.934738 0.439845 0.0941445
341 1 0.0516585 0.457809 0.0844741
1210 1 0.417086 0.460903 0.0797981
268 1 0.520517 0.464573 0.0749281
700 1 0.598299 0.465437 0.0763258
1599 1 0.670899 0.478077 0.0936179
708 1 0.818778 0.499489 0.0889614
441 1 0.00065824 0.514213 0.0807904
1050 1 0.213112 0.500067 0.083638
1316 1 0.312267 0.506123 0.0841253
1294 1 0.626158 0.545074 0.0703087
1592 1 0.928931 0.529081 0.0651626
1846 1 0.115805 0.588993 0.0804668
189 1 0.540876 0.552127 0.0680857
1145 1 0.700491 0.559893 0.0657798
1935 1 0.797769 0.581861 0.085748
1538 1 0.880649 0.589502 0.0983688
1434 1 0.00861019 0.637309 0.0594771
1224 1 0.217144 0.605004 0.0702773
1085 1 0.416667 0.609659 0.0932708
1945 1 0.505436 0.606887 0.0881445
74 1 0.58955 0.615281 0.0992773
1111 1 0.771931 0.648742 0.0540841
996 1 0.922876 0.641159 0.0560018
1374 1 0.0909293 0.664602 0.0914338
1121 1 0.83276 0.667839 0.0954573
720 1 0.042289 0.741788 0.0665168
1001 1 0.194282 0.708823 0.0967168
577 1 0.325571 0.72622 0.0943783
1469 1 0.393819 0.714366 0.0620791
1058 1 0.508473 0.710525 0.0640153
328 1 0.575865 0.700969 0.0946996
909 1 0.687134 0.749677 0.0749811
1754 1 0.790566 0.72757 0.0606262
1338 1 0.885388 0.72013 0.0616821
357 1 0.95946 0.718641 0.0791955
319 1 0.514562 0.783167 0.0670491
1249 1 0.918843 0.785686 0.0908131
1431 1 0.196386 0.810325 0.0980366
159 1 0.324719 0.809702 0.073526
1789 1 0.406792 0.818179 0.0921901
423 1 0.567406 0.834688 0.0833884
624 1 0.724563 0.846819 0.0942228
808 1 0.79507 0.816534 0.0753885
742 1 0.870432 0.838812 0.0989209
524 1 0.0168998 0.875438 0.074006
1090 1 0.151895 0.869017 0.0748845
1721 1 0.488786 0.852197 0.0660089
1099 1 0.655225 0.854401 0.0695658
936 1 0.940932 0.861433 0.0864442
177 1 0.163586 0.947345 0.09291
657 1 0.229361 0.915674 0.0669819
1297 1 0.359764 0.917417 0.0825584
1170 1 0.593145 0.92052 0.0955735
2020 1 0.669606 0.931786 0.0941402
1189 1 0.735352 0.94893 0.0537308
651 1 0.0514296 0.959295 0.0667164
1886 1 0.242364 0.988827 0.0871853
1272 1 0.358849 0.994673 0.0863114
1268 1 0.806518 0.955514 0.0616362
338 1 0.0313535 0.00956505 0.120336
1500 1 0.206021 0.0215676 0.145359
873 1 0.284805 0.0329989 0.143591
1747 1 0.49956 0.0143807 0.101241
1849 1 0.577785 0.00713089 0.127836
1821 1 0.642671 0.0355662 0.109685
1486 1 0.777858 0.00159343 0.126205
397 1 0.884696 0.0149878 0.102736
743 1 0.95841 0.0133761 0.10876
1343 1 0.122201 0.0790769 0.121551
1157 1 0.225869 0.0832676 0.109047
242 1 0.357155 0.0746894 0.125083
89 1 0.443368 0.0738334 0.12844
1705 1 0.989602 0.0894352 0.135411
1243 1 0.0719212 0.144079 0.109144
406 1 0.176624 0.145573 0.127718
380 1 0.512079 0.109048 0.119303
1200 1 0.660314 0.115013 0.105977
1755 1 0.815684 0.118298 0.10337
556 1 0.250201 0.157953 0.138955
1116 1 0.337102 0.179709 0.136105
1808 1 0.491208 0.195996 0.118687
686 1 0.596803 0.163145 0.108543
1465 1 0.750123 0.193227 0.105171
463 1 0.870581 0.170536 0.100327
428 1 0.93492 0.150048 0.135664
1959 1 0.123333 0.207936 0.112154
1986 1 0.699909 0.236554 0.149108
3 1 0.453286 0.251083 0.139352
1994 1 0.502183 0.296429 0.105574
1218 1 0.590095 0.273077 0.106878
264 1 0.793793 0.298775 0.147858
824 1 0.206839 0.310794 0.127936
1184 1 0.284922 0.322669 0.112147
468 1 0.860023 0.339406 0.132878
1174 1 0.0833071 0.366295 0.116077
136 1 0.248646 0.390739 0.129784
1583 1 0.409063 0.381784 0.137884
26 1 0.472758 0.373483 0.10207
1443 1 0.706263 0.356995 0.1181
1266 1 0.928283 0.367228 0.103312
1686 1 0.123937 0.429194 0.126983
679 1 0.548576 0.431258 0.137805
1293 1 0.859721 0.425406 0.104977
216 1 0.35929 0.450147 0.130306
1513 1 0.878986 0.497696 0.128452
170 1 0.120888 0.515787 0.106503
513 1 0.270931 0.544307 0.133969
1488 1 0.374905 0.540776 0.101652
678 1 0.448188 0.548057 0.120314
87 1 0.576474 0.523578 0.124428
890 1 0.728556 0.535986 0.136756
263 1 0.950519 0.508975 0.138096
18 1 0.0484761 0.594335 0.106102
1015 1 0.200915 0.557274 0.127067
1450 1 0.315293 0.59116 0.105073
286 1 0.973331 0.576299 0.108635
542 1 0.163798 0.633962 0.111297
1360 1 0.66935 0.6084 0.128304
1053 1 0.928222 0.644406 0.132925
232 1 0.262668 0.673965 0.109451
1036 1 0.342745 0.650847 0.133309
795 1 0.46738 0.670513 0.111477
1971 1 0.64061 0.677491 0.113902
806 1 0.719821 0.678861 0.1003
2019 1 0.99626 0.675923 0.124137
519 1 0.0631351 0.749807 0.138314
2028 1 0.797482 0.717005 0.131544
727 1 0.92344 0.733387 0.149773
893 1 0.128313 0.779404 0.100644
1884 1 0.264361 0.778076 0.107987
1202 1 0.335195 0.796895 0.146998
1010 1 0.455296 0.758957 0.105488
2041 1 0.560768 0.766694 0.131901
70 1 0.745588 0.767981 0.117033
685 1 0.848284 0.764807 0.111051
1468 1 0.989958 0.781542 0.117121
1518 1 0.0570184 0.814914 0.103292
1516 1 0.686136 0.807356 0.146143
705 1 0.27113 0.856194 0.134586
1262 1 0.379207 0.871356 0.136519
1665 1 0.618532 0.851755 0.135079
1939 1 0.993835 0.86257 0.141377
1006 1 0.0853385 0.900505 0.10198
787 1 0.223829 0.940693 0.145713
535 1 0.46171 0.916287 0.102202
1445 1 0.751429 0.91592 0.145407
484 1 0.82506 0.915186 0.122949
224 1 0.904511 0.93828 0.103817
1790 1 0.982135 0.938094 0.120003
1086 1 0.096194 0.965024 0.144832
1763 1 0.300668 0.959883 0.120383
155 1 0.526895 0.956012 0.146523
689 1 0.62756 0.954821 0.149486
2023 1 0.712682 0.980091 0.148923
1329 1 0.458316 0.00813975 0.16455
1857 1 0.742657 0.0332796 0.195353
1757 1 0.833207 0.0499395 0.157387
1304 1 0.979052 0.0329055 0.177779
744 1 0.0605259 0.0833282 0.168833
509 1 0.137152 0.0909122 0.194135
1308 1 0.210238 0.0869747 0.181471
1522 1 0.510037 0.0569509 0.173466
279 1 0.616769 0.0826323 0.167721
1805 1 0.771927 0.0933537 0.163264
888 1 0.906152 0.0701838 0.160245
220 1 0.290094 0.103608 0.166688
105 1 0.387339 0.112333 0.194266
174 1 0.469791 0.13584 0.169996
479 1 0.553625 0.128531 0.174771
1614 1 0.860648 0.134489 0.176476
605 1 0.0139262 0.169053 0.155136
420 1 0.113095 0.156099 0.169567
1353 1 0.508736 0.1939 0.19753
418 1 0.627689 0.157207 0.172698
1179 1 0.712387 0.159998 0.160216
895 1 0.913508 0.184109 0.199418
709 1 0.0720682 0.214998 0.161173
142 1 0.136376 0.221712 0.197292
951 1 0.196798 0.219337 0.151454
634 1 0.282853 0.231948 0.182915
532 1 0.407321 0.201104 0.189013
1295 1 0.577092 0.219102 0.156146
729 1 0.829062 0.220614 0.159346
1357 1 0.994411 0.248631 0.157974
1628 1 0.39103 0.29225 0.162305
811 1 0.886317 0.268311 0.160835
1913 1 0.0337289 0.328063 0.174043
975 1 0.121782 0.302295 0.176094
223 1 0.313425 0.305712 0.179724
1533 1 0.495982 0.309793 0.197827
1851 1 0.62531 0.30203 0.160513
90 1 0.688084 0.306951 0.199534
1279 1 0.955023 0.317689 0.161483
575 1 0.112804 0.382144 0.181259
1887 1 0.316519 0.38095 0.165482
1124 1 0.470299 0.398245 0.188021
127 1 0.531546 0.35624 0.154055
1891 1 0.637474 0.374554 0.152126
7 1 0.794174 0.394944 0.153046
966 1 0.0280249 0.415148 0.168346
2008 1 0.698243 0.402607 0.182548
56 1 0.915133 0.448939 0.168759
1051 1 0.00506295 0.494337 0.191285
537 1 0.0659431 0.496509 0.15509
643 1 0.14136 0.456051 0.196493
785 1 0.218884 0.492137 0.159265
1499 1 0.28367 0.455009 0.155053
346 1 0.417466 0.487099 0.162069
942 1 0.611286 0.456142 0.172121
1545 1 0.701292 0.473914 0.167729
781 1 0.774148 0.469435 0.167853
2030 1 0.513179 0.521189 0.17221
818 1 0.628806 0.546969 0.167555
1610 1 0.830174 0.543457 0.164257
1296 1 0.0506948 0.593171 0.181563
2 1 0.123976 0.594793 0.161227
1490 1 0.380572 0.574888 0.170382
1932 1 0.901395 0.558262 0.162174
529 1 0.202294 0.648776 0.178377
1904 1 0.266885 0.618932 0.156003
1303 1 0.458079 0.623607 0.169904
101 1 0.534436 0.603253 0.156337
1413 1 0.610301 0.63537 0.192972
820 1 0.734946 0.609812 0.173288
926 1 0.800513 0.633979 0.154148
1326 1 0.864645 0.626425 0.188127
1241 1 0.981539 0.637168 0.189642
61 1 0.0498824 0.671079 0.171635
823 1 0.121944 0.685666 0.154682
1385 1 0.554689 0.690968 0.166645
114 1 0.859963 0.699798 0.161927
910 1 0.22511 0.727973 0.162315
1227 1 0.314383 0.710521 0.180322
740 1 0.387695 0.705855 0.154317
388 1 0.453094 0.718293 0.175968
1003 1 0.63369 0.746562 0.150244
1855 1 0.707598 0.723756 0.161435
827 1 0.0282814 0.789487 0.198895
1212 1 0.269486 0.788893 0.196012
681 1 0.834379 0.780874 0.184188
1063 1 0.109134 0.841259 0.155849
1919 1 0.177491 0.834165 0.191665
35 1 0.406455 0.805969 0.180379
620 1 0.502569 0.81281 0.155049
1097 1 0.610616 0.801635 0.19196
860 1 0.768439 0.840661 0.160497
693 1 0.939347 0.829234 0.1771
1325 1 0.4495 0.864363 0.162264
958 1 0.675062 0.892071 0.157525
539 1 0.849024 0.854468 0.177025
381 1 0.0668873 0.904086 0.178921
1780 1 0.139094 0.904702 0.151256
728 1 0.286445 0.913215 0.176397
320 1 0.463319 0.935117 0.183577
1108 1 0.56787 0.906699 0.192684
1401 1 0.901539 0.902559 0.176116
1723 1 0.144536 0.990178 0.199563
576 1 0.324692 0.9918 0.19244
1214 1 0.392321 0.979229 0.171946
37 1 0.856353 0.981742 0.172175
906 1 0.068622 0.026412 0.227856
419 1 0.218564 0.0124941 0.226053
1172 1 0.583343 0.00309237 0.218527
616 1 0.659715 0.0290755 0.210516
1366 1 0.883228 0.0336577 0.237036
724 1 0.349984 0.0524634 0.222208
817 1 0.438394 0.0733646 0.238534
1248 1 0.702894 0.097663 0.21398
1228 1 0.250871 0.146324 0.218236
1503 1 0.474979 0.141621 0.246515
745 1 0.613445 0.122147 0.245205
1642 1 0.781273 0.129382 0.229286
1696 1 0.905558 0.117344 0.233408
1334 1 0.97796 0.117197 0.230684
48 1 0.0528189 0.16444 0.234599
1601 1 0.172998 0.157953 0.214948
536 1 0.342233 0.168187 0.206405
1838 1 0.713692 0.163378 0.244182
276 1 0.772016 0.199736 0.211933
214 1 0.845522 0.194598 0.225722
868 1 0.98442 0.197493 0.216337
213 1 0.219078 0.215017 0.248462
639 1 0.355091 0.246185 0.217465
768 1 0.449273 0.248505 0.226493
1534 1 0.618943 0.210426 0.232677
1411 1 0.690288 0.239863 0.237432
995 1 0.914141 0.246364 0.245459
1314 1 0.0613123 0.286875 0.234872
1072 1 0.189391 0.266814 0.210655
1506 1 0.282804 0.282296 0.249811
303 1 0.769571 0.275571 0.221475
731 1 0.838047 0.297023 0.220186
1106 1 0.986147 0.278521 0.233152
1424 1 0.154182 0.34087 0.2365
526 1 0.249763 0.336006 0.208317
1652 1 0.388214 0.315674 0.232335
528 1 0.577056 0.300894 0.221216
1656 1 0.900625 0.321644 0.210381
793 1 0.0489334 0.38196 0.245881
931 1 0.1929 0.39996 0.201344
1563 1 0.321682 0.350123 0.242055
1234 1 0.396163 0.391905 0.222795
1603 1 0.455549 0.352026 0.247818
1217 1 0.582276 0.383551 0.203121
1440 1 0.763096 0.366936 0.220346
1797 1 0.83163 0.366595 0.246307
389 1 0.960095 0.359205 0.244379
400 1 0.27111 0.411858 0.213524
1906 1 0.341552 0.439882 0.2021
1459 1 0.893893 0.409599 0.229325
1409 1 0.994176 0.429443 0.23726
362 1 0.061675 0.467478 0.228166
394 1 0.202756 0.491895 0.241083
1655 1 0.471175 0.488698 0.219484
1508 1 0.531226 0.450887 0.206214
953 1 0.658489 0.452453 0.227454
1167 1 0.728522 0.485037 0.242742
1014 1 0.832971 0.470823 0.22641
636 1 0.9288 0.489843 0.226898
377 1 0.113401 0.527861 0.203619
85 1 0.32163 0.512948 0.200333
1277 1 0.39957 0.521994 0.222223
1880 1 0.547037 0.546811 0.229908
1630 1 0.626318 0.519753 0.232525
1414 1 0.183987 0.585335 0.213728
1407 1 0.259903 0.552482 0.220566
5 1 0.463308 0.563556 0.213158
1544 1 0.660747 0.588684 0.218845
1280 1 0.763994 0.552664 0.20907
1491 1 0.881124 0.559928 0.249379
1289 1 0.965784 0.552646 0.224955
288 1 0.362355 0.627914 0.216755
361 1 0.526754 0.649621 0.221167
1437 1 0.791853 0.609201 0.234384
250 1 0.9276 0.611231 0.249684
1171 1 0.188757 0.691973 0.236549
1430 1 0.298831 0.660907 0.234132
962 1 0.451294 0.669703 0.230835
1275 1 0.702564 0.650297 0.232331
1718 1 0.80908 0.689884 0.226275
1670 1 0.906057 0.686815 0.215121
809 1 0.0573998 0.726947 0.224349
1065 1 0.145125 0.7482 0.219769
1694 1 0.368001 0.709452 0.232538
1466 1 0.514761 0.743558 0.213403
1393 1 0.579188 0.716901 0.235579
580 1 0.65723 0.704882 0.218851
396 1 0.990841 0.700724 0.226998
878 1 0.221951 0.764026 0.247159
832 1 0.341378 0.788827 0.231352
408 1 0.753649 0.763716 0.206645
650 1 0.89631 0.770217 0.225872
1774 1 0.0911666 0.829667 0.227416
1657 1 0.544836 0.829652 0.220718
568 1 0.343347 0.866355 0.208071
1908 1 0.505796 0.88854 0.225066
1726 1 0.73202 0.852486 0.23451
1433 1 0.899589 0.85503 0.235046
716 1 0.975127 0.854562 0.241904
1643 1 0.0370864 0.902764 0.246877
1553 1 0.198114 0.907197 0.219788
1605 1 0.640458 0.931061 0.221453
324 1 0.720711 0.92719 0.212408
1543 1 0.797291 0.908926 0.203348
1446 1 0.982025 0.941122 0.20831
333 1 0.0821452 0.954645 0.229447
45 1 0.516453 0.96227 0.223535
1034 1 0.802372 0.985024 0.244893
912 1 0.906516 0.967075 0.220973
1324 1 0.318282 0.0286079 0.293313
1396 1 0.496493 0.0232868 0.255166
812 1 0.601104 0.0459905 0.282816
714 1 0.67345 0.0462086 0.286255
1118 1 0.958139 0.00891107 0.268228
1646 1 0.00786949 0.0645769 0.274859
1872 1 0.135403 0.052039 0.284809
2045 1 0.260221 0.0640183 0.264278
88 1 0.776409 0.0561142 0.258394
1818 1 0.104984 0.117836 0.256007
256 1 0.259468 0.127524 0.291366
1390 1 0.328393 0.115105 0.257575
865 1 0.535323 0.102475 0.271613
506 1 0.838395 0.116565 0.282603
520 1 0.168935 0.162095 0.291757
1898 1 0.555937 0.171396 0.264473
291 1 0.801094 0.179338 0.283766
372 1 0.887417 0.17165 0.279517
1208 1 0.964254 0.196048 0.294351
20 1 0.0867972 0.225426 0.27427
571 1 0.300451 0.20392 0.253074
589 1 0.399565 0.200903 0.274735
1087 1 0.489576 0.206491 0.277197
862 1 0.160201 0.278084 0.277107
1119 1 0.359985 0.271567 0.292072
402 1 0.440372 0.28537 0.286864
733 1 0.556698 0.260275 0.277463
1719 1 0.635985 0.280207 0.26623
1813 1 0.814451 0.255161 0.276737
305 1 0.0176447 0.315188 0.290764
854 1 0.274944 0.343451 0.296799
1456 1 0.721774 0.310318 0.26589
1286 1 0.904172 0.331592 0.283486
1467 1 0.0978128 0.35371 0.293583
1332 1 0.404403 0.39058 0.295281
429 1 0.537679 0.355086 0.267583
2046 1 0.649857 0.365258 0.281843
1817 1 0.773573 0.381294 0.296351
471 1 0.123096 0.419061 0.258728
989 1 0.217269 0.409538 0.270336
1135 1 0.337503 0.426966 0.276119
1750 1 0.488353 0.405564 0.299042
1453 1 0.590409 0.445705 0.253551
879 1 0.71005 0.418575 0.266918
852 1 0.927654 0.401197 0.299551
405 1 0.128139 0.49464 0.265437
1879 1 0.274445 0.477257 0.266772
1399 1 0.435155 0.45726 0.286958
23 1 0.536536 0.489129 0.294621
1156 1 0.881778 0.490039 0.297857
633 1 0.968072 0.45922 0.295251
1418 1 0.0679181 0.549031 0.261414
1100 1 0.219826 0.545579 0.285099
129 1 0.666825 0.5499 0.293929
1290 1 0.805114 0.532605 0.269262
1550 1 0.935826 0.546677 0.298617
311 1 0.319274 0.551324 0.265003
344 1 0.483666 0.566423 0.289198
1622 1 0.581461 0.587967 0.283211
886 1 0.749542 0.574343 0.286451
915 1 0.836296 0.593906 0.298042
658 1 0.013928 0.608205 0.252158
1912 1 0.0898771 0.632798 0.273818
1242 1 0.232132 0.633533 0.254799
1048 1 0.418144 0.600088 0.262623
845 1 0.635026 0.643118 0.282402
549 1 0.0286579 0.691744 0.293353
1442 1 0.419889 0.685539 0.296995
210 1 0.784506 0.659806 0.2844
27 1 0.946445 0.679944 0.28367
93 1 0.238485 0.700491 0.290229
16 1 0.29322 0.73192 0.254774
387 1 0.501753 0.705875 0.272043
1188 1 0.720003 0.71696 0.286878
1812 1 0.8829 0.721373 0.288515
1765 1 0.107674 0.778892 0.277404
1323 1 0.279065 0.792025 0.298812
1025 1 0.367337 0.775959 0.299084
1358 1 0.451678 0.76031 0.27069
1692 1 0.527794 0.775558 0.280655
1568 1 0.663279 0.788381 0.254131
427 1 0.7403 0.791003 0.289731
756 1 0.807928 0.750076 0.261961
277 1 0.915751 0.798347 0.29454
1607 1 0.98479 0.766833 0.259735
1454 1 0.162574 0.839412 0.267035
1009 1 0.240934 0.838143 0.253057
1530 1 0.449057 0.835749 0.25496
271 1 0.837979 0.816806 0.250413
2004 1 0.116173 0.892886 0.27641
1706 1 0.397406 0.882181 0.261634
1213 1 0.607061 0.876517 0.257516
1528 1 0.673228 0.86162 0.284072
1481 1 0.776708 0.85419 0.292692
150 1 0.281924 0.942891 0.251356
1537 1 0.463766 0.900312 0.296737
1859 1 0.572594 0.943434 0.263108
312 1 0.757271 0.925219 0.279125
1858 1 0.842357 0.918706 0.26659
243 1 0.94726 0.933638 0.274259
1342 1 0.167807 0.954231 0.267582
100 1 0.232513 0.983042 0.293293
181 1 0.357836 0.951677 0.250793
1260 1 0.420923 0.992469 0.261684
443 1 0.731025 0.994024 0.272311
51 1 0.878744 0.976957 0.292585
1650 1 0.0338377 0.011861 0.311423
1310 1 0.434087 0.0246271 0.325528
292 1 0.73781 0.0495797 0.325008
547 1 0.820439 0.0451814 0.31888
606 1 0.0861062 0.0997705 0.325523
1975 1 0.207193 0.0647133 0.317874
2042 1 0.389573 0.0998721 0.311692
913 1 0.493407 0.067854 0.324023
610 1 0.893859 0.0762331 0.344793
1587 1 0.0237593 0.146447 0.307832
935 1 0.601571 0.114014 0.340049
1659 1 0.694809 0.116968 0.313751
374 1 0.780348 0.112418 0.333784
53 1 0.945127 0.115743 0.304705
352 1 0.23206 0.186516 0.326325
1828 1 0.3588 0.178666 0.344476
1606 1 0.438387 0.15323 0.34199
15 1 0.523528 0.181435 0.340179
383 1 0.631603 0.173809 0.304469
1663 1 0.0198626 0.244519 0.302566
652 1 0.300118 0.226821 0.324882
563 1 0.587203 0.2219 0.337207
694 1 0.746555 0.229614 0.316903
125 1 0.092352 0.2951 0.349551
12 1 0.194987 0.253038 0.347391
275 1 0.509405 0.296233 0.319961
495 1 0.673629 0.267126 0.327998
572 1 0.884279 0.25749 0.322437
176 1 0.953962 0.292003 0.315346
469 1 0.351908 0.338045 0.321092
1777 1 0.443704 0.336888 0.339616
1153 1 0.60111 0.312676 0.336952
1191 1 0.75095 0.307222 0.340988
1201 1 0.827488 0.32196 0.314111
1377 1 0.026739 0.418821 0.320735
1751 1 0.380681 0.442312 0.34538
1283 1 0.574224 0.401809 0.329257
1384 1 0.64003 0.426862 0.338775
2026 1 0.718239 0.427635 0.339256
1714 1 0.843543 0.405554 0.324886
1150 1 0.0604908 0.47922 0.300486
1982 1 0.126969 0.451629 0.326719
2024 1 0.289513 0.456748 0.343008
1425 1 0.777301 0.467228 0.312005
1591 1 0.00658207 0.527016 0.303985
1647 1 0.164649 0.51904 0.331157
1084 1 0.23523 0.508602 0.349781
1954 1 0.351551 0.51212 0.322763
1612 1 0.426013 0.523813 0.321101
881 1 0.611304 0.505302 0.314878
1373 1 0.692108 0.502787 0.345123
1829 1 0.830499 0.519921 0.336885
2039 1 0.0711534 0.585693 0.347174
775 1 0.140091 0.58912 0.317348
521 1 0.299291 0.581006 0.347767
455 1 0.546755 0.552019 0.338344
1403 1 0.225505 0.601351 0.342305
1950 1 0.348929 0.614461 0.304427
121 1 0.409224 0.607102 0.338188
1388 1 0.514114 0.624893 0.327607
748 1 0.710276 0.642543 0.31227
668 1 0.893507 0.641632 0.324067
199 1 0.998172 0.644434 0.348768
253 1 0.182585 0.653268 0.309025
385 1 0.29054 0.655854 0.320474
1219 1 0.56881 0.67774 0.32651
937 1 0.0525256 0.749214 0.32811
540 1 0.106961 0.704612 0.308412
1134 1 0.34738 0.70322 0.303319
1673 1 0.573486 0.748328 0.337669
1406 1 0.636834 0.706182 0.313669
1956 1 0.816384 0.712397 0.328802
2038 1 0.982283 0.736298 0.331471
941 1 0.172556 0.755366 0.309307
688 1 0.430401 0.769707 0.341308
1638 1 0.678154 0.782735 0.339004
1186 1 0.832711 0.785408 0.347412
687 1 0.123083 0.832789 0.330109
393 1 0.409668 0.838981 0.326742
1602 1 0.495393 0.842698 0.340147
864 1 0.599594 0.820861 0.30225
1046 1 0.0206629 0.860571 0.311215
331 1 0.0801271 0.893802 0.340197
553 1 0.229219 0.883008 0.316405
1417 1 0.304294 0.86006 0.307922
551 1 0.849958 0.857286 0.323834
133 1 0.937396 0.864399 0.317503
366 1 0.361249 0.900309 0.34008
585 1 0.563063 0.917635 0.333282
230 1 0.663101 0.918845 0.328373
2018 1 0.889928 0.919954 0.33708
837 1 0.1122 0.961326 0.328009
677 1 0.175232 0.999821 0.342017
1997 1 0.303117 0.954935 0.322018
1977 1 0.370954 0.986308 0.322668
1744 1 0.497188 0.964116 0.308056
842 1 0.593196 0.987731 0.329549
546 1 0.820242 0.954559 0.348266
1216 1 0.941796 0.988074 0.341451
241 1 0.118743 0.0458098 0.367712
1770 1 0.203391 0.0461231 0.397798
363 1 0.322462 0.0166527 0.387317
47 1 0.396589 0.0149047 0.396429
1832 1 0.471417 0.0293853 0.394793
2015 1 0.791809 0.0202951 0.39022
988 1 0.872463 0.0101657 0.373228
1860 1 0.271892 0.0567154 0.354608
316 1 0.334066 0.0891522 0.356241
221 1 0.573136 0.0602303 0.380602
699 1 0.671364 0.0561986 0.39137
1554 1 0.163647 0.105373 0.357474
1571 1 0.670889 0.134945 0.382636
304 1 0.846409 0.144511 0.350902
538 1 0.927191 0.146126 0.378329
1335 1 0.162744 0.18039 0.362749
1067 1 0.576895 0.172937 0.395185
1049 1 0.765281 0.183707 0.388991
1546 1 0.0575391 0.203855 0.352288
112 1 0.261747 0.234539 0.398406
1493 1 0.527542 0.247078 0.388666
91 1 0.880441 0.207271 0.374774
1257 1 0.962526 0.21088 0.368193
138 1 0.315454 0.291874 0.373762
1781 1 0.389672 0.276167 0.366116
767 1 0.461156 0.270593 0.373542
704 1 0.727001 0.253205 0.385926
284 1 0.808277 0.26434 0.366536
1327 1 0.168638 0.335832 0.353915
453 1 0.240574 0.31377 0.356604
104 1 0.384181 0.349977 0.390379
1675 1 0.547805 0.333567 0.38734
1151 1 0.978459 0.324206 0.376417
1672 1 0.0494353 0.354761 0.365602
371 1 0.211683 0.394954 0.351697
345 1 0.297433 0.371513 0.374322
1540 1 0.662807 0.352553 0.357909
449 1 0.804893 0.361885 0.374632
1162 1 0.912498 0.353411 0.360975
1552 1 0.147423 0.411331 0.396097
665 1 0.455019 0.427134 0.367194
234 1 0.823699 0.436141 0.39316
375 1 0.894724 0.434843 0.370316
158 1 0.964599 0.414594 0.362839
1993 1 0.0235691 0.477674 0.364341
1127 1 0.111385 0.497346 0.396586
1043 1 0.18627 0.485435 0.399376
2013 1 0.502176 0.491179 0.372294
1910 1 0.758424 0.482474 0.380865
448 1 0.944085 0.488478 0.35805
416 1 0.308114 0.51255 0.395438
195 1 0.379309 0.528594 0.39059
598 1 0.879435 0.515283 0.390984
1981 1 0.00599087 0.552282 0.381931
413 1 0.150474 0.574706 0.389123
237 1 0.473308 0.573944 0.363352
1180 1 0.62125 0.568086 0.3531
107 1 0.726146 0.568415 0.356678
425 1 0.807649 0.580364 0.390772
446 1 0.933302 0.570791 0.385407
602 1 0.134304 0.647424 0.36655
80 1 0.745542 0.636313 0.390538
1165 1 0.0739472 0.6942 0.379732
2007 1 0.206533 0.663831 0.383754
1565 1 0.336193 0.666657 0.396615
722 1 0.41037 0.694979 0.382245
1933 1 0.519392 0.682588 0.385001
1302 1 0.610458 0.659729 0.382609
42 1 0.684424 0.685792 0.372574
1400 1 0.849791 0.669852 0.389687
531 1 0.922171 0.68515 0.377372
1447 1 0.0064078 0.728526 0.399995
1480 1 0.260936 0.728206 0.354997
703 1 0.495962 0.747397 0.363217
597 1 0.745132 0.74185 0.355261
1564 1 0.885129 0.745811 0.391176
642 1 0.117992 0.766391 0.37133
1315 1 0.323652 0.75072 0.389753
1689 1 0.962337 0.797441 0.379231
1616 1 0.0616911 0.819334 0.368226
564 1 0.227299 0.813849 0.358037
467 1 0.343127 0.823232 0.360291
680 1 0.756527 0.813726 0.370818
710 1 0.0133977 0.878107 0.385486
940 1 0.126097 0.870175 0.39815
1042 1 0.278732 0.899548 0.371795
1799 1 0.451052 0.882549 0.385541
560 1 0.631967 0.852939 0.372568
877 1 0.705995 0.86892 0.364277
1946 1 0.788148 0.887953 0.365338
481 1 0.0138627 0.940647 0.354387
659 1 0.16445 0.911355 0.353548
1017 1 0.420054 0.947217 0.360172
1278 1 0.527687 0.982278 0.377171
1521 1 0.668008 0.9901 0.355471
691 1 0.737793 0.962498 0.353496
1383 1 0.277337 0.0463548 0.441097
92 1 0.536363 0.0244199 0.446951
475 1 0.626795 0.00515421 0.421284
2022 1 0.94111 0.0218127 0.407497
478 1 0.0226209 0.0555892 0.406389
202 1 0.0872506 0.0743194 0.432225
1350 1 0.763592 0.0889913 0.401879
143 1 0.0410201 0.136369 0.424758
1514 1 0.193307 0.127421 0.431905
124 1 0.307416 0.108045 0.4449
1561 1 0.407928 0.126301 0.403827
1519 1 0.484511 0.100575 0.405046
340 1 0.60514 0.122364 0.446062
1597 1 0.815074 0.143234 0.426058
1727 1 0.884775 0.102308 0.414421
1428 1 0.947438 0.141451 0.448191
148 1 0.108359 0.176209 0.417895
1570 1 0.21671 0.192192 0.439647
1916 1 0.265756 0.153327 0.40392
1441 1 0.876757 0.175635 0.448496
1380 1 0.042457 0.235599 0.427802
1581 1 0.352492 0.225676 0.413172
990 1 0.42627 0.211715 0.406545
1011 1 0.498454 0.207997 0.447655
669 1 0.646463 0.201727 0.404355
945 1 0.721645 0.218616 0.447461
84 1 0.825139 0.22997 0.43995
660 1 0.971126 0.21638 0.44831
144 1 0.122509 0.260068 0.40915
160 1 0.202358 0.291256 0.415093
24 1 0.290526 0.28096 0.446645
1285 1 0.371149 0.297272 0.447158
218 1 0.612283 0.261498 0.415348
1284 1 0.780967 0.294049 0.427984
1515 1 0.932746 0.270863 0.41084
1101 1 0.055235 0.30846 0.424693
1826 1 0.14917 0.342734 0.434353
544 1 0.494398 0.301957 0.43297
874 1 0.666999 0.310452 0.432083
58 1 0.856316 0.311675 0.401932
118 1 0.236684 0.362251 0.415898
1796 1 0.449465 0.365422 0.420507
68 1 0.749213 0.358013 0.435112
6 1 0.91982 0.394827 0.42442
1979 1 0.00153075 0.415992 0.440802
1728 1 0.0679313 0.431615 0.405002
430 1 0.349903 0.429148 0.412373
123 1 0.528337 0.433573 0.412016
849 1 0.598881 0.400472 0.406838
1848 1 0.687377 0.423139 0.436893
1635 1 0.767354 0.437871 0.44376
999 1 0.26089 0.454381 0.422649
378 1 0.43931 0.48464 0.412946
1784 1 0.648769 0.475767 0.402815
486 1 0.836272 0.488644 0.44453
655 1 0.222776 0.546684 0.422776
821 1 0.569381 0.502853 0.414168
1455 1 0.0896534 0.566336 0.438267
1376 1 0.455088 0.568917 0.436107
1198 1 0.549262 0.576964 0.428288
1110 1 0.622775 0.593957 0.420802
1077 1 0.690787 0.562485 0.424353
1175 1 0.0409129 0.619527 0.40379
1292 1 0.259515 0.614107 0.410292
267 1 0.462807 0.637209 0.402778
1823 1 0.100256 0.657129 0.437427
1539 1 0.240182 0.680865 0.44568
725 1 0.406091 0.655743 0.449991
802 1 0.560953 0.651832 0.437483
984 1 0.680995 0.653319 0.439495
376 1 0.773973 0.697592 0.425702
574 1 0.90301 0.665258 0.449836