LAMMPS (15 Sep 2022)
OMP_NUM_THREADS environment is not set. Defaulting to 1 thread. (src/comm.cpp:98)
  using 1 OpenMP thread(s) per MPI task
# 2d WCA system, random initial configuration

#variable density equal 0.5
variable initial_temperature equal 3.0
variable final_temperature equal 0.1
variable dt equal 0.01
variable tau equal 100*${dt}
variable tau equal 100*0.01
variable thermo_time equal 50000*${dt}
variable thermo_time equal 50000*0.01
variable equil_steps equal 50000
variable run_steps equal 100000

units           lj
atom_style      atomic
dimension       3

lattice         fcc ${density}
lattice         fcc 1.4
Lattice spacing in x,y,z = 1.4189834 1.4189834 1.4189834
region          box block 0 8 0 8 0 8
# number of atom types
create_box      1 box
Created orthogonal box = (0 0 0) to (11.351867 11.351867 11.351867)
  1 by 1 by 1 MPI processor grid
create_atoms    1 box
Created 2048 atoms
  using lattice units in orthogonal box = (0 0 0) to (11.351867 11.351867 11.351867)
  create_atoms CPU = 0.000 seconds
mass 1 1.0

velocity all create ${initial_temperature} 11000
velocity all create 3 11000

pair_style      lj/cut 1.0
#type_1 type_2 epsilon sigma cutoff
pair_coeff      1 1 10.0 0.89089871814 1.0
pair_modify shift yes

timestep ${dt}
timestep 0.01
thermo ${thermo_time}
thermo 500

fix 1 all nvt temp ${initial_temperature} ${initial_temperature} ${tau}
fix 1 all nvt temp 3 ${initial_temperature} ${tau}
fix 1 all nvt temp 3 3 ${tau}
fix 1 all nvt temp 3 3 1
run ${equil_steps}
run 50000
Generated 0 of 0 mixed pair_coeff terms from geometric mixing rule
Neighbor list info ...
  update: every = 1 steps, delay = 0 steps, check = yes
  max neighbors/atom: 2000, page size: 100000
  master list distance cutoff = 1.3
  ghost atom cutoff = 1.3
  binsize = 0.65, bins = 18 18 18
  1 neighbor lists, perpetual/occasional/extra = 1 0 0
  (1) pair lj/cut, perpetual
      attributes: half, newton on
      pair build: half/bin/atomonly/newton
      stencil: half/bin/3d
      bin: standard
Per MPI rank memory allocation (min/avg/max) = 3.156 | 3.156 | 3.156 Mbytes
   Step          Temp          E_pair         E_mol          TotEng         Press     
         0   3              0              0              4.4978027      4.1979492    
       500   2.8618109      3.7870896      0              8.0777099      71.887291    
      1000   2.9705811      3.6731533      0              8.1268492      70.638593    
      1500   2.9275236      3.9721418      0              8.361283       74.44706     
      2000   3.0405634      3.889334       0              8.4479521      73.13256     
      2500   3.1072157      3.8181669      0              8.4767147      72.933908    
      3000   3.0459746      3.8515895      0              8.4183205      72.927128    
      3500   3.0640745      3.8375034      0              8.4313709      72.789701    
      4000   2.9995584      3.8792006      0              8.3763412      72.596802    
      4500   3.0367314      3.8839882      0              8.4368611      73.375392    
      5000   3.0870876      3.8756507      0              8.504021       73.037468    
      5500   3.0187269      3.9767926      0              8.5026719      74.27809     
      6000   3.0278381      3.9221124      0              8.4616519      73.63893     
      6500   3.016788       4.0499094      0              8.5728818      74.835046    
      7000   3.0524319      3.9108975      0              8.4873097      73.966719    
      7500   3.1062632      3.8507566      0              8.5078763      73.006497    
      8000   3.0466313      3.853325       0              8.4210406      73.281432    
      8500   3.0090816      4.0559086      0              8.5673272      75.045873    
      9000   3.0985903      3.8401129      0              8.4857289      72.901303    
      9500   3.0714842      3.8947963      0              8.4997729      73.787143    
     10000   3.0715005      3.9026881      0              8.5076892      73.546416    
     10500   3.0448584      3.8918169      0              8.4568745      73.479714    
     11000   3.0563653      3.9256576      0              8.507967       73.785955    
     11500   3.0520871      3.883217       0              8.4591123      73.720662    
     12000   3.0514245      3.9801163      0              8.5550181      74.305105    
     12500   3.0945721      3.8312731      0              8.4708647      72.986087    
     13000   3.038088       3.8994823      0              8.4543891      74.158821    
     13500   2.9992921      3.9220921      0              8.4188335      73.686828    
     14000   3.0411336      3.9648142      0              8.5242873      74.309789    
     14500   2.9701325      3.9992427      0              8.4522662      74.643347    
     15000   3.0227208      4.0356029      0              8.5674702      74.694325    
     15500   3.021812       3.9537761      0              8.4842808      74.360428    
     16000   3.047001       3.9171623      0              8.4854321      74.086168    
     16500   3.0471591      3.9279906      0              8.4964975      73.15357     
     17000   2.9916345      4.0573529      0              8.5426134      75.241177    
     17500   3.0109865      3.9947654      0              8.5090399      74.446423    
     18000   3.0740402      3.9189417      0              8.5277505      73.765593    
     18500   3.0579268      3.9651594      0              8.5498099      74.170758    
     19000   3.0888895      3.84934        0              8.4804118      73.341847    
     19500   2.9967625      3.988344       0              8.4812929      74.321197    
     20000   3.037577       3.9209057      0              8.4750465      73.685859    
     20500   3.0240484      4.005169       0              8.5390267      74.779067    
     21000   3.0151561      3.95757        0              8.4780958      74.294773    
     21500   3.0693123      3.9103998      0              8.5121202      73.688349    
     22000   3.0237606      3.9110849      0              8.4445112      73.633759    
     22500   3.0042135      4.007561       0              8.511681       74.518174    
     23000   3.1051031      3.8460461      0              8.5014264      72.852943    
     23500   3.0590115      3.8834797      0              8.4697564      73.465032    
     24000   3.0726077      3.9253532      0              8.5320143      73.959054    
     24500   3.0537049      3.9693404      0              8.5476612      74.179109    
     25000   3.1008286      3.8085549      0              8.4575268      72.373497    
     25500   3.0381509      3.9724639      0              8.527465       74.11878     
     26000   3.0387313      3.9122813      0              8.4681526      73.289705    
     26500   3.1530076      3.8516536      0              8.5788557      73.201183    
     27000   2.9793623      4.0264341      0              8.4932953      74.886014    
     27500   3.077207       3.9043273      0              8.517884       73.356316    
     28000   3.0499733      3.9024404      0              8.4751665      73.693483    
     28500   2.9929894      3.9808963      0              8.4681883      74.417142    
     29000   3.0660504      3.9148017      0              8.5116316      73.683355    
     29500   3.0852821      3.8821461      0              8.5078095      73.298598    
     30000   2.9923184      3.9554351      0              8.441721       73.98521     
     30500   3.025537       4.0024004      0              8.53849        74.84111     
     31000   3.0348582      3.9464728      0              8.4965373      73.821289    
     31500   3.051057       3.9081727      0              8.4825235      73.07347     
     32000   3.0605547      3.9141964      0              8.5027869      73.839963    
     32500   3.0864921      3.9075953      0              8.5350728      73.716423    
     33000   3.05104        3.9402996      0              8.5146249      74.04791     
     33500   3.0325316      3.9387303      0              8.4853065      73.854533    
     34000   3.0350255      3.9623483      0              8.5126636      74.158824    
     34500   3.1147894      3.8284381      0              8.4983408      72.79326     
     35000   2.9863777      4.0790252      0              8.5564045      75.62132     
     35500   3.0161859      3.9498991      0              8.4719688      74.020758    
     36000   3.0835512      3.8584698      0              8.481538       72.892158    
     36500   3.0270432      3.9538359      0              8.4921836      74.073443    
     37000   3.0747573      3.8589164      0              8.4688004      73.478198    
     37500   3.0983701      3.8392591      0              8.4845449      72.794037    
     38000   3.019634       4.0115952      0              8.5388346      74.597016    
     38500   3.07244        3.8589983      0              8.465408       73.112067    
     39000   3.0367818      3.9788823      0              8.5318307      74.183568    
     39500   3.0087101      3.9486873      0              8.4595488      74.218037    
     40000   3.0127046      4.01187        0              8.5287202      74.916378    
     40500   3.0440654      3.9276247      0              8.4914933      73.754989    
     41000   3.0437222      3.9007319      0              8.4640859      73.408574    
     41500   3.076933       3.8792656      0              8.4924115      73.529754    
     42000   3.0792885      3.881719       0              8.4983965      73.400868    
     42500   3.0639831      3.89023        0              8.4839605      73.125528    
     43000   3.0346992      3.9624731      0              8.5122992      74.011183    
     43500   3.0142902      3.9859582      0              8.5051858      74.154032    
     44000   3.0265622      3.9686203      0              8.5062468      74.562252    
     44500   3.0659293      3.8894076      0              8.486056       73.398551    
     45000   3.0633929      3.9185272      0              8.5113728      73.776364    
     45500   3.025478       3.905025       0              8.4410261      73.519039    
     46000   3.0903165      3.8831965      0              8.5164079      73.626903    
     46500   3.0421733      3.9000969      0              8.4611286      73.916664    
     47000   3.1093845      3.8221491      0              8.4839485      72.660999    
     47500   3.1122117      3.8128793      0              8.4789174      72.616893    
     48000   3.1378631      3.7871536      0              8.49165        72.408523    
     48500   3.0387148      3.9083476      0              8.4641942      73.276582    
     49000   3.0971638      3.8692085      0              8.5126858      73.00046     
     49500   3.0608114      3.9023398      0              8.4913151      73.714895    
     50000   3.0166968      3.9493155      0              8.4721512      74.073766    
Loop time of 27.1794 on 1 procs for 50000 steps with 2048 atoms

Performance: 1589438.453 tau/day, 1839.628 timesteps/s, 3.768 Matom-step/s
99.6% CPU use with 1 MPI tasks x 1 OpenMP threads

MPI task timing breakdown:
Section |  min time  |  avg time  |  max time  |%varavg| %total
---------------------------------------------------------------
Pair    | 8.5282     | 8.5282     | 8.5282     |   0.0 | 31.38
Neigh   | 15.624     | 15.624     | 15.624     |   0.0 | 57.49
Comm    | 1.0676     | 1.0676     | 1.0676     |   0.0 |  3.93
Output  | 0.0062893  | 0.0062893  | 0.0062893  |   0.0 |  0.02
Modify  | 1.3687     | 1.3687     | 1.3687     |   0.0 |  5.04
Other   |            | 0.5845     |            |       |  2.15

Nlocal:           2048 ave        2048 max        2048 min
Histogram: 1 0 0 0 0 0 0 0 0 0
Nghost:           1396 ave        1396 max        1396 min
Histogram: 1 0 0 0 0 0 0 0 0 0
Neighs:          12555 ave       12555 max       12555 min
Histogram: 1 0 0 0 0 0 0 0 0 0

Total # of neighbors = 12555
Ave neighs/atom = 6.1303711
Neighbor list builds = 20328
Dangerous builds = 1

unfix 1
dump           1 all atom ${run_steps} 3dWCA_T${final_temperature}_d${density}_N${run_steps}.lammpstrj
dump           1 all atom 100000 3dWCA_T${final_temperature}_d${density}_N${run_steps}.lammpstrj
dump           1 all atom 100000 3dWCA_T0.1_d${density}_N${run_steps}.lammpstrj
dump           1 all atom 100000 3dWCA_T0.1_d1.4_N${run_steps}.lammpstrj
dump           1 all atom 100000 3dWCA_T0.1_d1.4_N100000.lammpstrj
dump           2 all dcd ${thermo_time} 3dWCA_T${final_temperature}_d${density}_N${run_steps}.dcd
dump           2 all dcd 500 3dWCA_T${final_temperature}_d${density}_N${run_steps}.dcd
dump           2 all dcd 500 3dWCA_T0.1_d${density}_N${run_steps}.dcd
dump           2 all dcd 500 3dWCA_T0.1_d1.4_N${run_steps}.dcd
dump           2 all dcd 500 3dWCA_T0.1_d1.4_N100000.dcd
fix 1 all nvt temp ${initial_temperature} ${final_temperature} ${tau}
fix 1 all nvt temp 3 ${final_temperature} ${tau}
fix 1 all nvt temp 3 0.1 ${tau}
fix 1 all nvt temp 3 0.1 1

run ${run_steps}
run 100000
Generated 0 of 0 mixed pair_coeff terms from geometric mixing rule
Per MPI rank memory allocation (min/avg/max) = 3.296 | 3.296 | 3.296 Mbytes
   Step          Temp          E_pair         E_mol          TotEng         Press     
     50000   3.0166968      3.9493155      0              8.4721512      74.073766    
     50500   3.0219681      3.88439        0              8.4151288      73.126286    
     51000   3.0476858      3.8267251      0              8.3960216      72.641226    
     51500   3.0107047      3.8913094      0              8.4051614      73.366112    
     52000   2.9774584      3.8448417      0              8.3088485      73.013145    
     52500   3.0143648      3.7752743      0              8.2946137      72.013578    
     53000   2.9556994      3.7755526      0              8.2069369      71.89516     
     53500   2.9020214      3.8460014      0              8.196908       72.785839    
     54000   2.9222105      3.7616481      0              8.1428235      71.461288    
     54500   3.0004702      3.6256474      0              8.1241551      70.241309    
     55000   2.854977       3.7316451      0              8.0120196      71.446306    
     55500   2.9109572      3.6308721      0              7.9951758      70.077263    
     56000   2.8290867      3.7366082      0              7.9781661      71.206369    
     56500   2.8278755      3.7291779      0              7.9689199      71.51268     
     57000   2.7994293      3.6613494      0              7.858443       70.443601    
     57500   2.8596342      3.5845945      0              7.8719513      69.64655     
     58000   2.7768537      3.6902771      0              7.8535238      70.793071    
     58500   2.8283399      3.5375627      0              7.7780009      68.84075     
     59000   2.7528753      3.603658       0              7.7309546      69.771067    
     59500   2.731173       3.5875742      0              7.6823334      69.477935    
     60000   2.7316162      3.568478       0              7.6639016      68.960732    
     60500   2.6939758      3.5613185      0              7.600309       69.02196     
     61000   2.7020962      3.5140752      0              7.5652404      68.567938    
     61500   2.6773028      3.460478       0              7.4744713      67.704197    
     62000   2.7163789      3.3344675      0              7.4070463      66.216477    
     62500   2.6841964      3.4218317      0              7.4461604      67.486754    
     63000   2.6237364      3.3357089      0              7.2693918      66.377237    
     63500   2.650315       3.3708119      0              7.3443432      66.655461    
     64000   2.5864679      3.353113       0              7.2309204      66.312745    
     64500   2.6155621      3.3252334      0              7.2466609      66.648684    
     65000   2.5545909      3.3708702      0              7.2008855      66.502913    
     65500   2.6771472      3.4357551      0              7.4495152      67.562569    
     66000   2.522415       3.2736018      0              7.0553768      65.313677    
     66500   2.5957243      3.4442271      0              7.3359124      67.935747    
     67000   2.5140002      3.2069672      0              6.9761261      64.514822    
     67500   2.4666952      3.2004478      0              6.8986839      64.501225    
     68000   2.5226419      3.163841       0              6.9459562      64.151329    
     68500   2.4617095      3.1005599      0              6.7913212      63.592076    
     69000   2.4327408      3.1892421      0              6.8365715      64.334601    
     69500   2.4085529      3.2375579      0              6.8486231      64.736594    
     70000   2.5311375      3.129955       0              6.9248074      63.45169     
     70500   2.4136931      3.0780104      0              6.6967822      62.717105    
     71000   2.4187344      3.2538465      0              6.8801766      64.804656    
     71500   2.3979978      3.010157       0              6.6053975      61.819901    
     72000   2.396783       3.1654171      0              6.7588361      63.929508    
     72500   2.3343445      3.0414217      0              6.5412287      62.424556    
     73000   2.3823254      3.1200826      0              6.6918259      63.387331    
     73500   2.3361922      2.9625561      0              6.4651332      61.21301     
     74000   2.2911812      2.9720784      0              6.407172       61.432118    
     74500   2.3191755      2.9448435      0              6.4219083      60.668149    
     75000   2.312416       2.9300278      0              6.3969582      60.784751    
     75500   2.289849       2.9316184      0              6.3647147      60.705256    
     76000   2.248095       2.9243732      0              6.2948691      60.610032    
     76500   2.19958        2.920915       0              6.218674       60.568134    
     77000   2.3034846      2.8929276      0              6.3464674      60.247351    
     77500   2.2260509      2.7768386      0              6.1142845      58.841175    
     78000   2.2457605      2.8831893      0              6.2501852      60.387393    
     78500   2.1182304      2.8757412      0              6.0515354      59.80419     
     79000   2.1980372      2.8618026      0              6.1572484      59.649072    
     79500   2.1468071      2.7468059      0              5.9654442      58.376771    
     80000   2.1273771      2.8692235      0              6.058731       59.846404    
     80500   2.0771205      2.7699523      0              5.8841117      58.843167    
     81000   2.082907       2.829609       0              5.952444       59.350618    
     81500   2.0694842      2.6656853      0              5.7683959      57.319376    
     82000   2.0984159      2.6665846      0              5.8126715      57.16306     
     82500   1.9670609      2.7118072      0              5.6609578      57.655861    
     83000   2.0852933      2.6401717      0              5.7665844      56.949565    
     83500   2.042841       2.6062104      0              5.6689757      56.309178    
     84000   2.0811093      2.6695003      0              5.78964        57.324285    
     84500   1.9769775      2.5665283      0              5.5305466      55.795467    
     85000   2.019857       2.6101549      0              5.638461       56.394959    
     85500   1.986591       2.3925585      0              5.37099        53.387975    
     86000   1.9281627      2.5964046      0              5.4872364      56.087224    
     86500   1.8809352      2.497154       0              5.3171792      54.710056    
     87000   1.9226857      2.5101594      0              5.3927798      55.056905    
     87500   1.877717       2.4609745      0              5.2761747      53.939488    
     88000   1.8855182      2.4964335      0              5.3233299      54.808212    
     88500   1.9069403      2.4264049      0              5.2854187      53.817907    
     89000   1.8379703      2.4718279      0              5.2274372      54.495889    
     89500   1.8910875      2.4740859      0              5.3093321      54.1884      
     90000   1.8377087      2.3755913      0              5.1308084      53.028945    
     90500   1.8459403      2.4539592      0              5.2215177      53.868473    
     91000   1.7990781      2.3467204      0              5.0440198      52.903929    
     91500   1.8481935      2.3356836      0              5.1066202      52.739811    
     92000   1.788112       2.3438646      0              5.0247229      52.401719    
     92500   1.7389457      2.3781937      0              4.9853386      52.901804    
     93000   1.7367092      2.2765728      0              4.8803646      51.71        
     93500   1.7508274      2.2154727      0              4.8404314      50.900723    
     94000   1.7255836      2.2320957      0              4.8192073      50.785621    
     94500   1.744537       2.2127224      0              4.8282502      51.001062    
     95000   1.6946875      2.1940254      0              4.7348154      50.500952    
     95500   1.6816734      2.2715303      0              4.7928086      51.337438    
     96000   1.6536811      2.1271438      0              4.6064543      49.261461    
     96500   1.6571441      2.219225       0              4.7037274      50.544964    
     97000   1.6048073      2.1372714      0              4.5433069      49.435982    
     97500   1.6437155      2.0572323      0              4.5216016      48.307629    
     98000   1.6430733      2.1013017      0              4.5647082      49.169103    
     98500   1.5851957      2.0271044      0              4.4037369      47.914117    
     99000   1.6249565      2.0549512      0              4.4911958      48.328727    
     99500   1.5600108      2.0194165      0              4.3582902      47.781537    
    100000   1.4996067      2.085852       0              4.3341637      48.538854    
    100500   1.615647       1.9643999      0              4.3866871      47.246085    
    101000   1.4798608      1.9894153      0              4.2081227      47.114125    
    101500   1.5343533      1.9811557      0              4.281562       47.144942    
    102000   1.505338       1.8798973      0              4.1368018      45.49496     
    102500   1.5102141      1.8958136      0              4.1600287      46.084472    
    103000   1.4453521      1.8750396      0              4.0420092      45.735522    
    103500   1.4283675      1.9261264      0              4.0676315      46.235985    
    104000   1.3906943      1.8503785      0              3.9354013      45.050025    
    104500   1.3872385      1.9183796      0              3.9982213      45.807044    
    105000   1.3714496      1.7893349      0              3.8455048      44.236891    
    105500   1.3713282      1.8209571      0              3.8769451      44.862667    
    106000   1.3876223      1.7681779      0              3.848595       44.022247    
    106500   1.3750432      1.7396279      0              3.8011856      43.485587    
    107000   1.3898989      1.7576325      0              3.8414629      43.786532    
    107500   1.32792        1.7201282      0              3.7110357      42.963862    
    108000   1.3232895      1.7692174      0              3.7531823      43.74471     
    108500   1.3019696      1.6834444      0              3.6354452      42.594416    
    109000   1.3213805      1.6791669      0              3.6602698      42.641467    
    109500   1.2832593      1.6587697      0              3.5827188      41.931973    
    110000   1.2622309      1.7041021      0              3.596524       42.821837    
    110500   1.2803128      1.5872103      0              3.5067417      41.333619    
    111000   1.3029864      1.6210338      0              3.574559       41.595253    
    111500   1.209697       1.5606178      0              3.3742773      40.74842     
    112000   1.2004074      1.5495973      0              3.3493292      40.402748    
    112500   1.1653806      1.5414132      0              3.2886306      40.121812    
    113000   1.200798       1.494673       0              3.2949904      39.428368    
    113500   1.1303807      1.5204446      0              3.2151877      39.957356    
    114000   1.1598991      1.4541957      0              3.1931948      38.855629    
    114500   1.0982064      1.4759786      0              3.1224838      39.078151    
    115000   1.1053696      1.471399       0              3.1286439      39.085427    
    115500   1.0773926      1.4154329      0              3.0307327      38.176297    
    116000   1.0672612      1.4535341      0              3.0536443      38.848669    
    116500   1.0518872      1.4114108      0              2.9884712      37.88175     
    117000   1.0624453      1.3810819      0              2.9739716      37.688468    
    117500   1.0586186      1.4230108      0              3.0101634      38.187021    
    118000   1.0143517      1.3473737      0              2.8681583      37.052995    
    118500   1.0274096      1.3477112      0              2.8880731      36.913039    
    119000   0.9957769      1.3113934      0              2.8043295      36.297401    
    119500   1.0016118      1.3045724      0              2.8062565      36.128666    
    120000   0.95512548     1.2802657      0              2.7122543      35.804962    
    120500   0.98997632     1.3138355      0              2.7980749      36.380258    
    121000   0.94511638     1.1985902      0              2.6155726      34.60094     
    121500   0.92087016     1.1893358      0              2.5699666      34.142687    
    122000   0.91433103     1.2014713      0              2.5722981      34.412263    
    122500   0.91739545     1.1763784      0              2.5517997      34.086651    
    123000   0.87611964     1.1463952      0              2.459933       33.227887    
    123500   0.85070479     1.1289076      0              2.4043417      33.26078     
    124000   0.84676791     1.1283624      0              2.3978941      32.740389    
    124500   0.81580409     1.0777795      0              2.3008881      32.131932    
    125000   0.82203781     1.0916213      0              2.324076       32.29687     
    125500   0.80087714     1.0016886      0              2.2024177      30.932       
    126000   0.78595315     1.0525844      0              2.2309385      31.812598    
    126500   0.77730938     1.012685       0              2.1780798      30.851163    
    127000   0.76055386     1.0070484      0              2.1473222      30.809701    
    127500   0.7554198      0.95681219     0              2.0893886      30.08269     
    128000   0.74510823     0.94257299     0              2.0596896      29.757591    
    128500   0.72631228     0.94211141     0              2.0310479      29.730391    
    129000   0.71221553     0.91980776     0              1.9876094      29.186871    
    129500   0.69889573     0.85366507     0              1.9014968      27.996755    
    130000   0.69188568     0.87865355     0              1.9159753      28.360571    
    130500   0.66742062     0.8816686      0              1.8823107      28.48011     
    131000   0.65412059     0.84526643     0              1.8259682      27.620429    
    131500   0.63462428     0.84201215     0              1.7934837      27.588296    
    132000   0.61049834     0.80114612     0              1.7164465      26.918353    
    132500   0.61982859     0.81227775     0              1.7415667      27.2517      
    133000   0.59284017     0.7635685      0              1.6523945      26.034963    
    133500   0.60697552     0.76387927     0              1.673898       26.187342    
    134000   0.56349825     0.72810824     0              1.5729429      25.333339    
    134500   0.54819637     0.73331647     0              1.5552095      25.435211    
    135000   0.53078874     0.70708369     0              1.502878       24.956977    
    135500   0.51969427     0.68351582     0              1.4626766      24.223317    
    136000   0.51812433     0.64610189     0              1.4229089      23.663583    
    136500   0.50258934     0.62858162     0              1.3820975      23.194211    
    137000   0.4791039      0.62134327     0              1.3396482      23.055666    
    137500   0.46599879     0.60003492     0              1.2986918      22.640942    
    138000   0.4385994      0.60132679     0              1.2589047      22.600437    
    138500   0.44001824     0.56042379     0              1.2201289      21.715433    
    139000   0.41937748     0.54663851     0              1.1753976      21.177023    
    139500   0.41023315     0.52051329     0              1.1355625      20.662649    
    140000   0.39840231     0.49764661     0              1.0949583      20.229296    
    140500   0.38709376     0.47282955     0              1.0531867      19.591073    
    141000   0.36119752     0.47487317     0              1.0164049      19.697017    
    141500   0.34895976     0.45032386     0              0.97350791     18.921739    
    142000   0.33435622     0.42947844     0              0.93076788     18.355598    
    142500   0.32352922     0.40856152     0              0.89361839     17.945876    
    143000   0.31335981     0.37943685     0              0.84924706     17.313676    
    143500   0.29571649     0.36457872     0              0.80793687     16.863096    
    144000   0.27661043     0.35251696     0              0.76723        16.423179    
    144500   0.26071462     0.3367583      0              0.72763927     16.105882    
    145000   0.25110251     0.30994527     0              0.68641512     15.223806    
    145500   0.23707044     0.28848385     0              0.64391588     14.647706    
    146000   0.21429295     0.28314413     0              0.60442659     14.475877    
    146500   0.20613903     0.25428196     0              0.56333952     13.61077     
    147000   0.19368238     0.23298626     0              0.52336797     12.920208    
    147500   0.176149       0.21668855     0              0.48078303     12.456066    
    148000   0.15989035     0.20130268     0              0.4410211      11.846407    
    148500   0.14636305     0.18046478     0              0.39990216     11.099735    
    149000   0.13190807     0.16150732     0              0.35927281     10.379273    
    149500   0.1177458      0.14256836     0              0.31910082     9.7000951    
    150000   0.10293398     0.12411958     0              0.27844516     8.9454076    
Loop time of 40.632 on 1 procs for 100000 steps with 2048 atoms

Performance: 2126400.984 tau/day, 2461.112 timesteps/s, 5.040 Matom-step/s
99.5% CPU use with 1 MPI tasks x 1 OpenMP threads

MPI task timing breakdown:
Section |  min time  |  avg time  |  max time  |%varavg| %total
---------------------------------------------------------------
Pair    | 16.65      | 16.65      | 16.65      |   0.0 | 40.98
Neigh   | 18.713     | 18.713     | 18.713     |   0.0 | 46.06
Comm    | 1.5478     | 1.5478     | 1.5478     |   0.0 |  3.81
Output  | 0.055746   | 0.055746   | 0.055746   |   0.0 |  0.14
Modify  | 2.7089     | 2.7089     | 2.7089     |   0.0 |  6.67
Other   |            | 0.9558     |            |       |  2.35

Nlocal:           2048 ave        2048 max        2048 min
Histogram: 1 0 0 0 0 0 0 0 0 0
Nghost:           1381 ave        1381 max        1381 min
Histogram: 1 0 0 0 0 0 0 0 0 0
Neighs:          12288 ave       12288 max       12288 min
Histogram: 1 0 0 0 0 0 0 0 0 0

Total # of neighbors = 12288
Ave neighs/atom = 6
Neighbor list builds = 25981
Dangerous builds = 0
Total wall time: 0:01:07
