ITEM: TIMESTEP
100000
ITEM: NUMBER OF ATOMS
400
ITEM: BOX BOUNDS pp pp pp
0.0000000000000000e+00 2.5819888974716111e+01
0.0000000000000000e+00 2.5819888974716111e+01
-6.4549722436790280e-01 6.4549722436790280e-01
ITEM: ATOMS id type xs ys zs
355 1 0.228678 0.375826 0.5
100 1 0.437872 0.101865 0.5
120 1 0.362714 0.146288 0.5
291 1 0.030922 0.318222 0.5
350 1 0.0503458 0.0312414 0.5
195 1 0.0620055 0.183827 0.5
283 1 0.415759 0.387027 0.5
80 1 0.2033 0.0570165 0.5
156 1 0.481536 0.0765389 0.5
199 1 0.327676 0.480355 0.5
164 1 0.391216 0.493671 0.5
54 1 0.00561656 0.494099 0.5
382 1 0.488361 0.0150527 0.5
318 1 0.164697 0.0209543 0.5
286 1 0.149886 0.0978369 0.5
57 1 0.0424922 0.107613 0.5
398 1 0.316311 0.396582 0.5
73 1 0.277732 0.311979 0.5
187 1 0.162235 0.452939 0.5
236 1 0.364019 0.0122497 0.5
263 1 0.373316 0.344439 0.5
354 1 0.0933739 0.200636 0.5
281 1 0.157624 0.143275 0.5
259 1 0.0930738 0.101037 0.5
352 1 0.267748 0.0677342 0.5
103 1 0.349733 0.0502534 0.5
269 1 0.313563 0.185828 0.5
109 1 0.310773 0.226669 0.5
38 1 0.432406 0.176573 0.5
397 1 0.46557 0.35642 0.5
70 1 0.320493 0.294028 0.5
58 1 0.375837 0.385335 0.5
394 1 0.291544 0.0995093 0.5
353 1 0.390646 0.0498898 0.5
264 1 0.395276 0.197376 0.5
5 1 0.403589 0.448953 0.5
194 1 0.0198441 0.219236 0.5
25 1 0.306077 0.0641102 0.5
174 1 0.19492 0.0937343 0.5
67 1 0.421024 0.225809 0.5
219 1 0.238792 0.111101 0.5
145 1 0.338495 0.117683 0.5
322 1 0.352719 0.194074 0.5
307 1 0.208654 0.0137183 0.5
52 1 0.0293233 0.449792 0.5
284 1 0.180286 0.26214 0.5
37 1 0.13333 0.236616 0.5
140 1 0.273438 0.469399 0.5
63 1 0.0729732 0.314061 0.5
223 1 0.0357901 0.262557 0.5
28 1 0.111174 0.327771 0.5
166 1 0.28708 0.138968 0.5
301 1 0.454872 0.242594 0.5
162 1 0.125433 0.00342228 0.5
144 1 0.337626 0.352866 0.5
16 1 0.213181 0.143501 0.5
256 1 0.0928647 0.261216 0.5
383 1 0.249314 0.171182 0.5
177 1 0.0776083 0.354479 0.5
396 1 0.0583441 0.22388 0.5
49 1 0.15145 0.19778 0.5
190 1 0.25235 0.245457 0.5
346 1 0.204878 0.17962 0.5
50 1 0.279259 0.1995 0.5
216 1 0.39611 0.304458 0.5
77 1 0.0463117 0.401358 0.5
247 1 0.0928463 0.389598 0.5
208 1 0.287262 0.272327 0.5
275 1 0.474075 0.199074 0.5
242 1 0.31519 0.0178149 0.5
137 1 0.185759 0.213441 0.5
252 1 0.171733 0.369195 0.5
205 1 0.0525904 0.0697588 0.5
99 1 0.134277 0.284665 0.5
375 1 0.130744 0.360821 0.5
113 1 0.227638 0.211161 0.5
135 1 0.424239 0.276978 0.5
310 1 0.108358 0.0657168 0.5
18 1 0.0488288 0.480867 0.5
94 1 0.157093 0.319862 0.5
272 1 0.0374681 0.358519 0.5
183 1 0.290833 0.359037 0.5
320 1 0.421262 0.343703 0.5
249 1 0.467035 0.150966 0.5
363 1 0.385087 0.246416 0.5
22 1 0.0761174 0.425101 0.5
200 1 0.280485 0.428431 0.5
47 1 0.316443 0.440643 0.5
184 1 0.485597 0.388722 0.5
114 1 0.168147 0.417121 0.5
153 1 0.102992 0.156952 0.5
62 1 0.451675 0.0473507 0.5
107 1 0.223439 0.455168 0.5
42 1 0.116621 0.457206 0.5
326 1 0.26273 0.396149 0.5
309 1 0.145699 0.0522142 0.5
204 1 0.450232 0.434112 0.5
343 1 0.475672 0.470354 0.5
23 1 0.364799 0.4592 0.5
179 1 0.451931 0.300024 0.5
104 1 0.00896961 0.0609293 0.5
296 1 0.195889 0.483365 0.5
230 1 0.00442237 0.104499 0.5
138 1 0.01011 0.413548 0.5
176 1 0.273763 0.0110659 0.5
158 1 0.44569 0.00558146 0.5
319 1 0.428337 0.487563 0.5
213 1 0.0143558 0.169773 0.5
257 1 0.311487 0.829991 0.5
139 1 0.395121 0.890244 0.5
93 1 0.183388 0.975991 0.5
384 1 0.0311034 0.806514 0.5
371 1 0.213162 0.814485 0.5
68 1 0.0404744 0.637841 0.5
53 1 0.476441 0.693222 0.5
366 1 0.0396614 0.596921 0.5
314 1 0.0968363 0.594283 0.5
36 1 0.131867 0.709558 0.5
277 1 0.385037 0.684974 0.5
160 1 0.426796 0.54575 0.5
17 1 0.0587994 0.779513 0.5
90 1 0.21564 0.576431 0.5
323 1 0.296363 0.613353 0.5
246 1 0.434755 0.946247 0.5
31 1 0.460882 0.52143 0.5
170 1 0.482011 0.883194 0.5
267 1 0.155764 0.660087 0.5
163 1 0.253316 0.971476 0.5
97 1 0.46186 0.746233 0.5
141 1 0.351255 0.517789 0.5
133 1 0.274011 0.841979 0.5
240 1 0.31198 0.567826 0.5
338 1 0.37392 0.77092 0.5
197 1 0.0388377 0.676777 0.5
196 1 0.432304 0.821624 0.5
2 1 0.0799437 0.63771 0.5
106 1 0.178361 0.714767 0.5
26 1 0.170438 0.531539 0.5
115 1 0.328425 0.6791 0.5
265 1 0.135363 0.599512 0.5
390 1 0.214964 0.531781 0.5
126 1 0.342052 0.644331 0.5
280 1 0.41049 0.581438 0.5
202 1 0.331147 0.778089 0.5
276 1 0.251907 0.587395 0.5
232 1 0.435637 0.879586 0.5
181 1 0.117473 0.662889 0.5
71 1 0.402057 0.851325 0.5
268 1 0.290586 0.718201 0.5
255 1 0.28302 0.538518 0.5
15 1 0.0245914 0.765225 0.5
48 1 0.0926862 0.704302 0.5
376 1 0.187918 0.63133 0.5
45 1 0.0873095 0.744601 0.5
119 1 0.0966844 0.956481 0.5
161 1 0.17659 0.587926 0.5
315 1 0.36356 0.603523 0.5
285 1 0.150388 0.80837 0.5
348 1 0.155718 0.760641 0.5
122 1 0.247745 0.694068 0.5
101 1 0.160757 0.849444 0.5
325 1 0.348348 0.717819 0.5
210 1 0.0375039 0.994034 0.5
105 1 0.0808011 0.841992 0.5
79 1 0.227378 0.630273 0.5
313 1 0.206836 0.680101 0.5
12 1 0.201338 0.770263 0.5
215 1 0.452107 0.608867 0.5
386 1 0.0952015 0.552591 0.5
46 1 0.295254 0.785254 0.5
102 1 0.00603963 0.716963 0.5
331 1 0.409848 0.975684 0.5
335 1 0.200552 0.941108 0.5
11 1 0.188252 0.903136 0.5
149 1 0.110512 0.797181 0.5
127 1 0.248154 0.742721 0.5
336 1 0.420831 0.632838 0.5
116 1 0.253763 0.510511 0.5
294 1 0.0586726 0.887191 0.5
85 1 0.115438 0.8822 0.5
254 1 0.120697 0.838989 0.5
248 1 0.43931 0.689587 0.5
231 1 0.372498 0.96375 0.5
337 1 0.0411471 0.527465 0.5
128 1 0.476787 0.957611 0.5
201 1 0.0577798 0.955743 0.5
189 1 0.128686 0.935165 0.5
271 1 0.198358 0.86156 0.5
270 1 0.345993 0.882739 0.5
165 1 0.0142377 0.898559 0.5
152 1 0.342689 0.922768 0.5
10 1 0.255654 0.892318 0.5
245 1 0.0289662 0.850429 0.5
34 1 0.493377 0.796105 0.5
43 1 0.484508 0.845981 0.5
74 1 0.359423 0.818524 0.5
387 1 0.301092 0.868918 0.5
377 1 0.323128 0.959496 0.5
168 1 0.487939 0.635186 0.5
13 1 0.100023 0.510446 0.5
312 1 0.497303 0.5763 0.5
250 1 0.0875356 0.99973 0.5
56 1 0.588968 0.0743214 0.5
305 1 0.728317 0.0252569 0.5
169 1 0.930375 0.392763 0.5
27 1 0.96518 0.443537 0.5
379 1 0.673956 0.0867993 0.5
92 1 0.956214 0.000900844 0.5
134 1 0.814319 0.472639 0.5
207 1 0.827064 0.106041 0.5
111 1 0.815552 0.168305 0.5
311 1 0.939656 0.156603 0.5
399 1 0.79356 0.0727971 0.5
369 1 0.915196 0.000761392 0.5
55 1 0.548055 0.113424 0.5
6 1 0.768651 0.00625514 0.5
288 1 0.891961 0.16607 0.5
234 1 0.898834 0.319507 0.5
279 1 0.591083 0.498923 0.5
150 1 0.524104 0.0715107 0.5
306 1 0.750927 0.0546171 0.5
82 1 0.554886 0.328424 0.5
95 1 0.865826 0.274749 0.5
221 1 0.730029 0.162758 0.5
282 1 0.618081 0.117072 0.5
157 1 0.902288 0.128513 0.5
193 1 0.626268 0.0782136 0.5
21 1 0.586966 0.144959 0.5
349 1 0.743665 0.257285 0.5
304 1 0.807504 0.216835 0.5
274 1 0.712932 0.105273 0.5
64 1 0.671442 0.0221638 0.5
87 1 0.845408 0.19058 0.5
224 1 0.655417 0.128973 0.5
51 1 0.746314 0.126682 0.5
330 1 0.738935 0.215751 0.5
389 1 0.997395 0.273696 0.5
19 1 0.932098 0.0899919 0.5
14 1 0.663569 0.171362 0.5
61 1 0.70039 0.313093 0.5
182 1 0.613969 0.341233 0.5
378 1 0.784225 0.132723 0.5
186 1 0.70899 0.359241 0.5
147 1 0.793257 0.25388 0.5
89 1 0.976236 0.17395 0.5
35 1 0.615538 0.173964 0.5
300 1 0.77786 0.175187 0.5
118 1 0.953191 0.275438 0.5
367 1 0.882852 0.229275 0.5
88 1 0.568442 0.0142517 0.5
351 1 0.532435 0.30024 0.5
261 1 0.633403 0.241968 0.5
225 1 0.621081 0.442363 0.5
121 1 0.505277 0.139445 0.5
227 1 0.742338 0.413284 0.5
131 1 0.96988 0.317264 0.5
130 1 0.688484 0.249607 0.5
317 1 0.594795 0.300781 0.5
60 1 0.759617 0.356924 0.5
66 1 0.759433 0.312535 0.5
178 1 0.528388 0.36342 0.5
173 1 0.505867 0.26206 0.5
81 1 0.804857 0.327261 0.5
229 1 0.625941 0.395705 0.5
251 1 0.840411 0.400344 0.5
30 1 0.825846 0.293326 0.5
308 1 0.97487 0.036096 0.5
72 1 0.503887 0.429865 0.5
241 1 0.666944 0.335924 0.5
339 1 0.853095 0.327393 0.5
385 1 0.555158 0.178881 0.5
370 1 0.660285 0.410199 0.5
209 1 0.552069 0.422535 0.5
40 1 0.593954 0.212753 0.5
393 1 0.903068 0.27002 0.5
290 1 0.79152 0.382632 0.5
198 1 0.630674 0.489587 0.5
400 1 0.948494 0.227709 0.5
238 1 0.57452 0.3709 0.5
362 1 0.752369 0.453918 0.5
302 1 0.56503 0.470423 0.5
159 1 0.872375 0.474124 0.5
96 1 0.509693 0.330806 0.5
297 1 0.901519 0.053959 0.5
91 1 0.896922 0.436792 0.5
243 1 0.601121 0.262298 0.5
84 1 0.861206 0.134754 0.5
358 1 0.660215 0.450524 0.5
233 1 0.700182 0.492369 0.5
244 1 0.699796 0.405652 0.5
20 1 0.835179 0.036606 0.5
76 1 0.52579 0.476331 0.5
185 1 0.564248 0.274352 0.5
171 1 0.633296 0.0269299 0.5
321 1 0.924182 0.472285 0.5
289 1 0.755506 0.490766 0.5
65 1 0.6382 0.284261 0.5
292 1 0.715813 0.438498 0.5
155 1 0.981963 0.134272 0.5
125 1 0.876056 0.0915753 0.5
148 1 0.55788 0.222153 0.5
146 1 0.791865 0.429723 0.5
32 1 0.516053 0.197269 0.5
7 1 0.963265 0.486417 0.5
226 1 0.841049 0.498826 0.5
143 1 0.995439 0.377765 0.5
374 1 0.85618 0.00795278 0.5
154 1 0.934359 0.69888 0.5
340 1 0.713706 0.548726 0.5
287 1 0.50276 0.524998 0.5
380 1 0.656884 0.936821 0.5
132 1 0.994183 0.568619 0.5
235 1 0.71995 0.622662 0.5
1 1 0.557152 0.965249 0.5
212 1 0.537202 0.91294 0.5
361 1 0.613638 0.542433 0.5
142 1 0.734836 0.964423 0.5
258 1 0.628612 0.809222 0.5
334 1 0.733795 0.705808 0.5
29 1 0.690609 0.667549 0.5
192 1 0.820186 0.978292 0.5
357 1 0.644537 0.585622 0.5
278 1 0.529063 0.630386 0.5
360 1 0.593683 0.97565 0.5
299 1 0.576336 0.877864 0.5
327 1 0.837069 0.629623 0.5
295 1 0.869099 0.532054 0.5
211 1 0.993513 0.956921 0.5
260 1 0.917239 0.614472 0.5
203 1 0.642357 0.705606 0.5
59 1 0.757279 0.553654 0.5
136 1 0.97186 0.92598 0.5
124 1 0.65438 0.661162 0.5
298 1 0.537906 0.586624 0.5
228 1 0.675174 0.624917 0.5
98 1 0.957013 0.664263 0.5
303 1 0.524739 0.746947 0.5
237 1 0.95884 0.743929 0.5
112 1 0.542981 0.78687 0.5
341 1 0.895356 0.573081 0.5
191 1 0.879718 0.641505 0.5
129 1 0.629741 0.90075 0.5
253 1 0.936159 0.566256 0.5
345 1 0.591402 0.674614 0.5
365 1 0.512755 0.973534 0.5
108 1 0.89365 0.697788 0.5
342 1 0.749951 0.653288 0.5
151 1 0.792492 0.583828 0.5
172 1 0.597486 0.61238 0.5
220 1 0.821698 0.530116 0.5
206 1 0.988269 0.831321 0.5
239 1 0.727685 0.755411 0.5
44 1 0.987144 0.780156 0.5
372 1 0.634733 0.988634 0.5
39 1 0.799843 0.648899 0.5
24 1 0.742378 0.793934 0.5
373 1 0.918537 0.656557 0.5
175 1 0.829682 0.672984 0.5
217 1 0.865569 0.737228 0.5
41 1 0.581622 0.840891 0.5
293 1 0.697932 0.857945 0.5
167 1 0.627366 0.745221 0.5
324 1 0.769066 0.83237 0.5
266 1 0.683496 0.580464 0.5
368 1 0.847084 0.782981 0.5
391 1 0.686452 0.717799 0.5
3 1 0.679351 0.771459 0.5
316 1 0.864029 0.816665 0.5
222 1 0.785591 0.683863 0.5
214 1 0.943307 0.823276 0.5
392 1 0.885722 0.974602 0.5
123 1 0.589222 0.725377 0.5
273 1 0.845822 0.857483 0.5
180 1 0.671931 0.528723 0.5
262 1 0.673394 0.976118 0.5
9 1 0.747419 0.595818 0.5
388 1 0.815328 0.898851 0.5
329 1 0.789306 0.727125 0.5
328 1 0.905876 0.504262 0.5
381 1 0.972765 0.881705 0.5
117 1 0.907164 0.79978 0.5
188 1 0.807143 0.805389 0.5
75 1 0.634001 0.847947 0.5
395 1 0.860878 0.942692 0.5
86 1 0.934087 0.868541 0.5
218 1 0.807755 0.845969 0.5
332 1 0.935061 0.964379 0.5
83 1 0.57919 0.572532 0.5
33 1 0.691985 0.902636 0.5
359 1 0.750352 0.911624 0.5
356 1 0.993907 0.677927 0.5
8 1 0.587648 0.926092 0.5
344 1 0.895876 0.871402 0.5
110 1 0.917081 0.741313 0.5
69 1 0.54233 0.692467 0.5
4 1 0.593687 0.783611 0.5
347 1 0.540721 0.85547 0.5
78 1 0.696915 0.816513 0.5
364 1 0.794354 0.950312 0.5
333 1 0.54693 0.548748 0.5
