ITEM: TIMESTEP
0
ITEM: NUMBER OF ATOMS
360
ITEM: BOX BOUNDS pp pp pp
0.0000000000000000e+00 6.6943295008216896e+00
0.0000000000000000e+00 6.6943295008216896e+00
0.0000000000000000e+00 6.6943295008216896e+00
ITEM: ATOMS id type xs ys zs
71 1 0.0900768 0.0984115 0.165649
298 2 0.0467146 0.037405 0.0667054
90 1 0.163674 0.225637 0.109804
228 1 0.0458435 0.242021 0.221501
93 1 0.2452 0.060891 0.124731
261 1 0.14365 0.111131 0.0075958
253 1 0.38241 0.0751356 0.205191
146 1 0.406092 0.120443 0.0595746
211 1 0.31413 0.207477 0.172129
276 1 0.478555 0.183369 0.187503
282 1 0.288613 0.206951 0.0058367
142 1 0.563368 0.0746438 0.0856711
12 1 0.629772 0.134188 0.213757
15 1 0.563701 0.234183 0.0600628
179 1 0.736022 0.0894288 0.0624259
38 1 0.743317 0.228257 0.127435
240 1 0.524894 0.00449276 0.230219
330 2 0.754805 0.0765667 0.182203
200 1 0.998452 0.17289 0.0644369
18 1 0.871524 0.120317 0.147739
322 2 0.907156 0.222041 0.238363
127 1 0.925127 0.0431467 0.00255166
217 1 0.0564202 0.340702 0.0744423
237 1 0.155769 0.382696 0.175732
314 2 0.188523 0.271454 0.226549
294 2 0.00568547 0.450764 0.128942
95 1 0.289458 0.353252 0.109495
117 1 0.422457 0.272916 0.0787828
293 2 0.412792 0.294993 0.213947
56 1 0.418494 0.411729 0.155743
350 2 0.258101 0.463531 0.00476009
317 2 0.32237 0.460377 0.231006
354 2 0.65513 0.491909 0.0649166
260 1 0.519666 0.391523 0.00671716
35 1 0.665539 0.350161 0.0902336
7 1 0.544343 0.331135 0.177256
235 1 0.702248 0.465803 0.192079
92 1 0.677073 0.305088 0.247285
271 1 0.550334 0.481629 0.14509
149 1 0.950521 0.444995 0.0218569
13 1 0.890046 0.469 0.174063
286 1 0.994846 0.384292 0.243267
351 2 0.78563 0.372038 0.153994
77 1 0.900693 0.286657 0.123283
242 1 0.801386 0.438127 0.0453164
57 1 0.0691745 0.046224 0.482178
170 1 0.0906867 0.038455 0.307834
131 1 0.196668 0.140232 0.255526
233 1 0.0705627 0.170132 0.381469
336 2 0.171038 0.0866107 0.403535
99 1 0.235495 0.244024 0.38215
27 1 0.171343 0.171344 0.496482
206 1 0.395371 0.0298476 0.468548
108 1 0.36469 0.203373 0.30649
188 1 0.291897 0.0824903 0.362635
52 1 0.475239 0.108091 0.35542
324 2 0.46217 0.231235 0.405015
224 1 0.32688 0.170347 0.484846
40 1 0.665316 0.0522132 0.337802
328 2 0.674367 0.184604 0.32865
165 1 0.594408 0.1506 0.437893
185 1 0.556722 0.24148 0.319893
31 1 0.775638 0.150859 0.412679
25 1 0.813092 0.0135854 0.276332
180 1 0.786797 0.182358 0.267266
198 1 0.936737 0.14398 0.457319
169 1 0.954651 0.121812 0.294244
176 1 0.213755 0.493062 0.270102
17 1 0.0548349 0.489455 0.332688
111 1 0.0798651 0.304835 0.464998
134 1 0.128385 0.329209 0.320392
159 1 0.205874 0.424309 0.408515
191 1 0.366319 0.47043 0.395603
151 1 0.441982 0.354817 0.318487
187 1 0.288235 0.343534 0.272823
243 1 0.366429 0.30917 0.43977
60 1 0.593786 0.422298 0.313915
292 2 0.639379 0.420177 0.435327
32 1 0.739573 0.435115 0.34456
209 1 0.673267 0.298864 0.394599
58 1 0.536547 0.338899 0.447379
184 1 0.964511 0.278002 0.352318
246 1 0.899329 0.463201 0.336312
136 1 0.837713 0.319437 0.425277
47 1 0.83912 0.331966 0.27135
203 1 0.820817 0.493162 0.478235
285 1 0.975349 0.423789 0.465157
113 1 0.12222 0.119232 0.628763
122 1 0.228984 0.0299475 0.523286
343 2 0.249797 0.0938018 0.64844
335 2 0.045322 0.174553 0.518606
112 1 0.0549257 0.231488 0.742118
23 1 0.267593 0.214015 0.63375
278 1 0.381475 0.120014 0.620666
160 1 0.476497 0.20797 0.523397
301 2 0.444527 0.0706774 0.72272
308 2 0.341106 0.187565 0.739506
182 1 0.519991 0.0564399 0.544313
287 1 0.541667 0.147902 0.666182
168 1 0.672908 0.104602 0.571127
219 1 0.704447 0.220921 0.68361
119 1 0.971354 0.144126 0.613916
167 1 0.826672 0.125608 0.70178
19 1 0.830192 0.0676046 0.557782
135 1 0.781766 0.227693 0.548471
340 2 0.947949 0.144754 0.743806
277 1 0.911518 0.00499457 0.716352
329 2 0.965744 0.0306596 0.544467
213 1 0.108635 0.271158 0.610854
256 1 0.173939 0.431532 0.642784
299 2 0.101429 0.353318 0.71122
61 1 0.0239879 0.411934 0.615511
193 1 0.231945 0.318819 0.5295
347 2 0.122429 0.39209 0.529383
172 1 0.092804 0.491762 0.748645
120 1 0.417549 0.269939 0.677016
325 2 0.357762 0.280691 0.561097
116 1 0.478456 0.423876 0.694111
163 1 0.317757 0.388154 0.659245
10 1 0.417628 0.401452 0.535362
129 1 0.28737 0.483634 0.532177
355 2 0.516273 0.335816 0.585572
280 1 0.629035 0.257354 0.552625
54 1 0.584327 0.31732 0.707342
183 1 0.593427 0.436106 0.57526
89 1 0.708088 0.38801 0.666906
333 2 0.606295 0.437904 0.72233
20 1 0.727068 0.370277 0.518606
21 1 0.945509 0.289471 0.534812
50 1 0.881325 0.273223 0.666875
66 1 0.869647 0.430965 0.619781
195 1 0.195061 0.143818 0.760983
222 1 0.0534614 0.0747449 0.771333
341 2 0.146079 0.0871937 0.873936
109 1 0.177132 0.22128 0.892269
28 1 0.0358344 0.165846 0.890316
356 2 0.0950685 0.239236 0.993199
268 1 0.400272 0.0201944 0.884294
78 1 0.319345 0.0407224 0.752802
106 1 0.27771 0.0920372 0.911998
39 1 0.457513 0.166151 0.7978
315 2 0.388313 0.162327 0.933964
162 1 0.329146 0.244086 0.857142
46 1 0.660148 0.0781762 0.756205
72 1 0.536092 0.0209796 0.827261
22 1 0.521739 0.121726 0.93534
157 1 0.665066 0.0616036 0.922085
262 1 0.596824 0.21256 0.827407
6 1 0.687379 0.226592 0.966648
5 1 0.917516 0.242333 0.827051
239 1 0.834065 0.181256 0.997861
152 1 0.763286 0.165074 0.845762
250 1 0.907473 0.0814578 0.855939
337 2 0.798252 0.0731265 0.942185
36 1 0.217313 0.299285 0.75315
281 1 0.14461 0.498913 0.899752
302 2 0.0611328 0.417187 0.970777
105 1 0.100467 0.350981 0.851146
41 1 0.240748 0.448755 0.796667
11 1 0.186165 0.354185 0.981004
289 2 0.252545 0.341674 0.871892
145 1 0.481026 0.265016 0.911445
359 2 0.447653 0.44199 0.913564
98 1 0.394549 0.374373 0.811494
201 1 0.34548 0.372541 0.966077
297 2 0.48827 0.29709 0.78104
192 1 0.687225 0.493077 0.812324
272 1 0.692329 0.326093 0.82364
103 1 0.688545 0.419927 0.952202
69 1 0.543988 0.395122 0.843256
339 2 0.601288 0.319665 0.940137
311 2 0.917673 0.365972 0.864965
313 2 0.794845 0.262046 0.759037
81 1 0.967585 0.374065 0.751066
30 1 0.807017 0.324315 0.925335
126 1 0.971232 0.292812 0.962523
65 1 0.821425 0.387792 0.783382
94 1 0.988255 0.472674 0.855909
174 1 0.848607 0.489329 0.893558
267 1 0.207114 0.672514 0.110952
296 2 0.0934342 0.620572 0.0829134
259 1 0.0930219 0.551323 0.190214
68 1 0.0678906 0.695721 0.197948
232 1 0.0215298 0.730654 0.055334
309 2 0.233086 0.733793 0.0052297
73 1 0.110292 0.500602 0.0507475
82 1 0.37084 0.586026 0.18629
241 1 0.358069 0.659435 0.0361055
79 1 0.352791 0.735698 0.179753
9 1 0.403101 0.51359 0.0409657
43 1 0.257631 0.501554 0.126879
150 1 0.510196 0.623805 0.0712024
8 1 0.505376 0.678792 0.211029
133 1 0.649972 0.611102 0.137736
155 1 0.728365 0.568264 0.00607252
87 1 0.962696 0.590212 0.106545
123 1 0.784403 0.698804 0.0560854
360 2 0.838881 0.573323 0.0881937
83 1 0.796952 0.629548 0.194528
231 1 0.890216 0.734932 0.157986
295 2 0.803682 0.50573 0.248962
274 1 0.124614 0.958378 0.136296
147 1 0.142171 0.822457 0.0365695
53 1 0.22972 0.830827 0.190663
210 1 0.0416632 0.834858 0.176546
266 1 0.00726658 0.890455 0.0370474
307 2 0.252366 0.933842 0.103221
138 1 0.47932 0.777798 0.0908176
248 1 0.323538 0.808126 0.0406474
84 1 0.371146 0.907566 0.162333
344 2 0.442172 0.874247 0.0244541
181 1 0.346103 0.96688 0.0144497
318 2 0.443588 0.995369 0.105428
178 1 0.505782 0.827404 0.239693
140 1 0.634743 0.776883 0.102675
229 1 0.543303 0.907944 0.111273
154 1 0.672245 0.927828 0.0339502
291 2 0.630361 0.845797 0.218157
29 1 0.672999 0.980627 0.19009
352 2 0.777086 0.853953 0.043134
305 2 0.931894 0.873204 0.131847
4 1 0.758718 0.84171 0.173093
257 1 0.829284 0.968567 0.118775
234 1 0.971291 0.99952 0.174823
34 1 0.112333 0.539255 0.493767
252 1 0.0839537 0.642398 0.357149
319 2 0.167757 0.715 0.406039
249 1 0.0153191 0.74613 0.465441
227 1 0.22818 0.681144 0.264461
104 1 0.232056 0.593452 0.403649
306 2 0.325262 0.577336 0.312691
270 1 0.378957 0.688147 0.328798
236 1 0.383619 0.613111 0.463229
48 1 0.469375 0.538186 0.287875
132 1 0.291235 0.735877 0.468887
102 1 0.657617 0.730469 0.253691
64 1 0.66146 0.58254 0.296653
205 1 0.691845 0.690073 0.399151
44 1 0.530044 0.676823 0.376037
125 1 0.675606 0.536568 0.439828
223 1 0.521405 0.511881 0.441449
275 1 0.809639 0.73564 0.298387
144 1 0.83301 0.703174 0.463332
251 1 0.952847 0.600097 0.257231
273 1 0.809444 0.590631 0.35428
16 1 0.948628 0.585543 0.433085
207 1 0.969973 0.740488 0.321223
332 2 0.759766 0.614544 0.485706
265 1 0.15865 0.818498 0.479089
269 1 0.241349 0.986174 0.250932
55 1 0.120836 0.781693 0.311538
189 1 0.0259004 0.896623 0.350074
51 1 0.178866 0.947352 0.394936
342 2 0.389064 0.835729 0.27676
158 1 0.300705 0.888167 0.483439
161 1 0.271325 0.829581 0.340263
74 1 0.440868 0.81222 0.400604
118 1 0.385681 0.95919 0.320949
110 1 0.535508 0.971134 0.412208
24 1 0.599734 0.821402 0.370803
263 1 0.734696 0.889464 0.323076
323 2 0.614658 0.936811 0.32835
67 1 0.892591 0.833208 0.417451
196 1 0.887012 0.881637 0.264999
214 1 0.760776 0.992764 0.451535
216 1 0.750911 0.8316 0.488555
348 2 0.943493 0.986443 0.3019
238 1 0.918415 0.99098 0.436789
334 2 0.198998 0.705741 0.676564
254 1 0.148214 0.691457 0.55152
97 1 0.00903886 0.627048 0.579375
128 1 0.196738 0.582705 0.649085
283 1 0.073962 0.653584 0.721886
290 2 0.248028 0.610627 0.527888
321 2 0.0710209 0.532771 0.630286
255 1 0.456361 0.541507 0.591361
199 1 0.336341 0.667348 0.598935
284 1 0.464158 0.734489 0.528405
148 1 0.461918 0.637783 0.712841
96 1 0.332131 0.558945 0.727711
130 1 0.319412 0.711404 0.744096
245 1 0.578614 0.726923 0.650197
143 1 0.586125 0.56366 0.6696
177 1 0.727843 0.701008 0.58162
221 1 0.593271 0.621168 0.530692
264 1 0.715393 0.531749 0.602313
338 2 0.706993 0.644985 0.710783
303 2 0.945271 0.654706 0.690518
75 1 0.857377 0.617938 0.588246
42 1 0.950442 0.526295 0.69763
156 1 0.826553 0.703489 0.712143
226 1 0.798858 0.542316 0.725015
353 2 0.953004 0.516553 0.558536
101 1 0.100078 0.816545 0.642091
218 1 0.0467914 0.987374 0.637584
186 1 0.203533 0.979547 0.669218
300 2 0.159729 0.921581 0.562309
86 1 0.247315 0.807983 0.615107
114 1 0.01802 0.893164 0.508469
331 2 0.365123 0.805349 0.557251
49 1 0.348896 0.951433 0.630742
139 1 0.434239 0.808503 0.667701
220 1 0.472768 0.90421 0.548627
225 1 0.443726 0.94045 0.745709
304 2 0.56828 0.863193 0.62092
215 1 0.688459 0.83218 0.646329
80 1 0.579458 0.989577 0.671357
244 1 0.614031 0.783746 0.515881
141 1 0.63429 0.936674 0.536121
194 1 0.74582 0.977926 0.656959
37 1 0.983879 0.767916 0.748772
107 1 0.931192 0.762316 0.611479
316 2 0.812955 0.802634 0.603714
45 1 0.867852 0.91564 0.577066
327 2 0.960202 0.881934 0.668271
85 1 0.845061 0.859037 0.725912
166 1 0.204048 0.602761 0.803677
153 1 0.152707 0.693971 0.916786
349 2 0.0770614 0.59921 0.844671
288 1 0.0403442 0.602851 0.96319
33 1 0.240406 0.591995 0.983501
212 1 0.342693 0.528124 0.892785
358 2 0.401906 0.634283 0.822423
279 1 0.458632 0.616915 0.930805
204 1 0.314638 0.712254 0.898305
59 1 0.483629 0.526555 0.804674
320 2 0.42969 0.746515 0.961719
175 1 0.475382 0.74208 0.841529
100 1 0.571625 0.519632 0.930502
63 1 0.605321 0.640007 0.817566
173 1 0.6165 0.670848 0.973159
247 1 0.755084 0.620533 0.858936
62 1 0.887346 0.627834 0.972637
3 1 0.951222 0.629988 0.822002
115 1 0.849724 0.744671 0.858191
124 1 0.051109 0.990582 0.918493
208 1 0.155706 0.776214 0.785112
76 1 0.0461741 0.914994 0.77391
357 2 0.0998748 0.869235 0.901144
202 1 0.229723 0.834585 0.915995
197 1 0.0120094 0.767385 0.899983
164 1 0.177841 0.97723 0.828801
2 1 0.195841 0.96433 0.99479
88 1 0.313705 0.864899 0.77546
345 2 0.291255 0.949323 0.89496
26 1 0.393889 0.860683 0.901123
121 1 0.519085 0.97654 0.979096
312 2 0.509732 0.900192 0.866409
326 2 0.692357 0.902024 0.758016
346 2 0.612331 0.754175 0.867427
190 1 0.726492 0.792441 0.948162
1 1 0.711921 0.763594 0.791496
137 1 0.559614 0.846924 0.765146
14 1 0.650764 0.90042 0.883027
258 1 0.541271 0.823515 0.962859
70 1 0.780442 0.992532 0.817419
171 1 0.92506 0.894718 0.871123
230 1 0.812496 0.947325 0.957985
310 2 0.791818 0.861666 0.853335
91 1 0.879673 0.803189 0.998309
ITEM: TIMESTEP
10000000
ITEM: NUMBER OF ATOMS
360
ITEM: BOX BOUNDS pp pp pp
0.0000000000000000e+00 6.6943295008216896e+00
0.0000000000000000e+00 6.6943295008216896e+00
0.0000000000000000e+00 6.6943295008216896e+00
ITEM: ATOMS id type xs ys zs
233 1 0.146465 0.107786 0.155202
324 2 0.0686857 0.235301 0.156911
164 1 0.128604 0.185321 0.0313015
200 1 0.0563195 0.0215215 0.0446221
289 2 0.210773 0.0189626 0.238669
301 2 0.246176 0.151178 0.0883188
206 1 0.337483 0.181441 0.170211
212 1 0.439781 0.023353 0.133889
338 2 0.654768 0.335908 0.336514
322 2 0.958866 0.18894 0.482684
239 1 0.499633 0.167313 0.128039
142 1 0.641847 0.0939558 0.0588767
29 1 0.669099 0.212508 0.146171
357 2 0.606254 0.114867 0.199078
297 2 0.5621 0.212092 0.0243501
209 1 0.719916 0.0768696 0.230283
41 1 0.347161 0.473084 0.464396
189 1 0.981335 0.150469 0.115713
282 1 0.810534 0.13978 0.106828
18 1 0.876583 0.13095 0.243027
332 2 0.90084 0.24525 0.0998204
140 1 0.980224 0.0184187 0.200294
276 1 0.207541 0.26622 0.164334
109 1 0.0753043 0.366484 0.199804
185 1 0.197145 0.402354 0.0728247
202 1 0.0607428 0.461999 0.0545564
152 1 0.0317173 0.307807 0.0554909
95 1 0.220188 0.399772 0.237671
146 1 0.282842 0.260349 0.0276321
82 1 0.464246 0.464761 0.16642
84 1 0.357639 0.340012 0.168007
333 2 0.501379 0.405662 0.0350617
73 1 0.367686 0.425955 0.035214
2 1 0.440092 0.274337 0.0211907
253 1 0.538596 0.320104 0.132682
92 1 0.685964 0.371714 0.22038
323 2 0.672236 0.328733 0.091052
66 1 0.624351 0.460662 0.106268
77 1 0.790949 0.308227 0.117911
93 1 0.937846 0.275781 0.23074
30 1 0.924641 0.403787 0.105911
172 1 0.166365 0.28495 0.484614
4 1 0.85758 0.401391 0.247682
221 1 0.554297 0.0188365 0.478592
183 1 0.780433 0.377453 0.383617
285 1 0.0446139 0.16098 0.263841
31 1 0.0834694 0.0310079 0.332251
228 1 0.215845 0.146425 0.282641
113 1 0.0978684 0.161078 0.414383
298 2 0.228136 0.229738 0.38951
108 1 0.237473 0.0384668 0.381473
144 1 0.899418 0.490701 0.35931
40 1 0.458419 0.209466 0.262791
57 1 0.350597 0.0489983 0.268179
237 1 0.343369 0.151491 0.382704
54 1 0.414238 0.0108733 0.416737
15 1 0.508207 0.0349825 0.277731
135 1 0.515449 0.17408 0.41519
14 1 0.637147 0.0804606 0.359515
229 1 0.608395 0.222604 0.287703
335 2 0.821582 0.024903 0.176223
134 1 0.71221 0.251058 0.441361
163 1 0.880691 0.252838 0.388736
47 1 0.76858 0.247582 0.266044
114 1 0.955308 0.098272 0.384536
19 1 0.779206 0.116596 0.382018
83 1 0.783894 0.472249 0.127383
181 1 0.341992 0.114434 0.0136501
339 2 0.00807161 0.248367 0.343498
159 1 0.112259 0.469669 0.330913
264 1 0.0142435 0.308591 0.491846
16 1 0.997834 0.372258 0.345431
249 1 0.0165062 0.471163 0.480299
160 1 0.12481 0.272482 0.308764
316 2 0.108338 0.369802 0.413773
188 1 0.275773 0.00715213 0.118829
151 1 0.238969 0.365403 0.381809
287 1 0.235885 0.14471 0.498233
79 1 0.302354 0.270663 0.291621
211 1 0.437496 0.315295 0.388328
254 1 0.374963 0.422026 0.29531
280 1 0.508417 0.470926 0.393786
351 2 0.90537 0.370559 0.429881
35 1 0.578392 0.337038 0.435817
117 1 0.530335 0.360928 0.282879
193 1 0.65537 0.458559 0.389728
60 1 0.58822 0.508027 0.252384
288 1 0.9829 0.494606 0.224205
87 1 0.177694 0.470304 0.471642
343 2 0.859738 0.0334325 0.44716
52 1 0.129601 0.0114361 0.48798
257 1 0.900074 0.00390097 0.0731858
64 1 0.304391 0.505027 0.168652
307 2 0.460926 0.269407 0.501385
99 1 0.324325 0.272014 0.491858
250 1 0.101099 0.14714 0.581787
356 2 0.0537912 0.0363026 0.641799
122 1 0.249525 0.233374 0.642167
72 1 0.497235 0.104392 0.983928
166 1 0.0381178 0.152942 0.732205
281 1 0.194069 0.127398 0.756391
201 1 0.865784 0.37844 0.850248
224 1 0.314745 0.0911062 0.658393
205 1 0.40745 0.140703 0.525777
10 1 0.477486 0.133726 0.668073
76 1 0.292236 0.00423546 0.523579
336 2 0.552748 0.0761353 0.592668
219 1 0.557239 0.213508 0.566054
182 1 0.66 0.135607 0.676317
318 2 0.278568 0.00771309 0.749805
320 2 0.710328 0.267058 0.733021
139 1 0.188564 0.0216961 0.634834
337 2 0.774185 0.0644056 0.604165
50 1 0.983394 0.066037 0.537895
240 1 0.81479 0.161486 0.688213
168 1 0.956108 0.20777 0.618527
220 1 0.926297 0.0444762 0.692746
217 1 0.0776889 0.462465 0.667977
314 2 0.105951 0.398517 0.558076
162 1 0.0882078 0.301145 0.635387
279 1 0.240547 0.392121 0.579322
354 2 0.173415 0.385968 0.709135
304 2 0.577089 0.438865 0.508173
5 1 0.995374 0.312462 0.775371
120 1 0.418578 0.272622 0.620637
223 1 0.446586 0.394405 0.531565
116 1 0.29865 0.360839 0.727116
199 1 0.356729 0.478079 0.64625
272 1 0.731242 0.4859 0.839609
177 1 0.442801 0.361324 0.754887
306 2 0.481049 0.430103 0.655317
112 1 0.712737 0.267948 0.605003
262 1 0.579668 0.359321 0.606119
145 1 0.708354 0.39655 0.697838
260 1 0.708852 0.405545 0.538894
21 1 0.581954 0.240531 0.759826
7 1 0.834192 0.306074 0.714149
105 1 0.948918 0.380601 0.632264
326 2 0.813373 0.390998 0.617583
194 1 0.847862 0.464808 0.732043
119 1 0.855045 0.302258 0.533174
286 1 0.742915 0.384491 0.987962
292 2 0.977174 0.444352 0.757535
49 1 0.726061 0.224454 0.991672
127 1 0.0786128 0.0940794 0.878222
12 1 0.219598 0.190116 0.893702
256 1 0.348107 0.207699 0.757461
248 1 0.333763 0.0776037 0.863499
329 2 0.347415 0.213011 0.934849
59 1 0.49457 0.0975867 0.820976
22 1 0.452223 0.245558 0.867412
269 1 0.837953 0.142609 0.520295
312 2 0.613287 0.0376966 0.940709
71 1 0.593503 0.194604 0.903775
136 1 0.658728 0.0621932 0.817914
179 1 0.754235 0.0549041 0.951514
234 1 0.591887 0.327399 0.984717
6 1 0.750186 0.19094 0.819413
137 1 0.892694 0.280735 0.974343
299 2 0.98157 0.0649882 0.809252
235 1 0.909086 0.196923 0.818377
149 1 0.957387 0.127789 0.964965
28 1 0.851591 0.0649329 0.845817
246 1 0.045516 0.240395 0.904992
345 2 0.125149 0.476386 0.950214
43 1 0.176295 0.338541 0.93442
284 1 0.163933 0.283023 0.784388
9 1 0.0939105 0.424461 0.828673
290 2 0.226948 0.414468 0.838439
153 1 0.357324 0.480821 0.804965
128 1 0.262484 0.487633 0.934135
33 1 0.320727 0.33424 0.885678
271 1 0.462059 0.407608 0.912492
251 1 -0.00510665 0.386759 0.924721
100 1 0.613944 0.476274 0.938993
174 1 0.868844 0.483977 0.984158
268 1 0.684218 0.333591 0.849852
155 1 0.586354 0.441221 0.790202
295 2 0.540099 0.326897 0.86968
308 2 0.834936 0.176006 0.922841
61 1 0.856188 0.454019 0.511771
24 1 0.677445 0.120007 0.513685
130 1 0.221995 0.489786 0.725809
274 1 0.207076 0.0559069 0.987672
147 1 0.168605 0.70583 0.119534
302 2 0.0617311 0.593976 0.081964
11 1 0.142847 0.529129 0.185241
210 1 0.0322455 0.650304 0.191923
315 2 0.233123 0.592633 0.117651
27 1 0.0536664 0.703193 0.0135347
53 1 0.43809 0.618162 0.140559
222 1 0.317802 0.73709 0.0543071
267 1 0.332404 0.585364 0.0375207
241 1 0.301654 0.650618 0.21336
13 1 0.74985 0.502078 0.280466
296 2 0.498498 0.758577 0.223782
44 1 0.490991 0.534011 0.0197957
32 1 0.67599 0.607764 0.175207
291 2 0.562255 0.578248 0.137538
348 2 0.696241 0.702932 0.0982944
38 1 0.555229 0.730166 0.116967
231 1 0.63342 0.610989 0.0301244
242 1 0.920357 0.606007 0.473848
275 1 0.797373 0.606939 0.0523481
62 1 0.944871 0.561962 0.0950724
25 1 0.861956 0.586032 0.227228
216 1 0.90297 0.704476 0.127458
232 1 0.11971 0.951168 0.178914
133 1 0.041188 0.79515 0.152096
132 1 0.231508 0.853815 0.118586
309 2 0.172535 0.959157 0.0620169
310 2 -0.00208374 0.920731 0.098833
70 1 0.099114 0.8628 0.0122296
303 2 0.442065 0.770425 0.0784461
154 1 0.373931 0.885622 0.061646
51 1 0.375295 0.785681 0.18722
325 2 0.38215 0.924039 0.181069
148 1 0.628105 0.872152 0.483762
258 1 0.50061 0.872778 0.140612
225 1 0.562647 0.960113 0.0288375
46 1 0.666498 0.846143 0.0884956
263 1 0.624056 0.802606 0.23024
238 1 0.748691 0.91014 0.221959
196 1 0.773268 0.756564 0.184628
328 2 0.818803 0.859823 0.0887527
180 1 0.90052 0.875943 0.187374
190 1 0.936688 0.826206 0.0355816
91 1 0.771333 0.762039 0.00604051
334 2 0.834894 0.846718 0.30491
169 1 0.84901 0.87354 0.42816
89 1 0.237129 0.618724 0.433485
259 1 0.161907 0.640144 0.298389
330 2 0.104115 0.572835 0.42573
158 1 0.116822 0.719178 0.431752
349 2 0.0485586 0.735273 0.292271
300 2 0.734644 0.981851 0.332886
150 1 0.407291 0.573894 0.293579
255 1 0.386088 0.620545 0.455807
111 1 0.264027 0.512977 0.326044
227 1 0.418848 0.726953 0.314717
353 2 0.0808479 0.853372 0.476783
118 1 0.567429 0.655811 0.254242
252 1 0.671202 0.701242 0.449823
176 1 0.536258 0.626577 0.397096
294 2 0.658291 0.580872 0.357003
65 1 0.732876 0.670537 0.302541
198 1 0.986918 0.951056 0.436277
184 1 0.867163 0.976909 0.31453
97 1 0.00400905 0.610567 0.340757
123 1 0.821829 0.720339 0.432461
218 1 0.771679 0.559478 0.426593
293 2 0.868581 0.630734 0.340126
195 1 0.619399 0.982923 0.176699
104 1 0.916738 0.741201 0.289211
261 1 0.166022 0.800048 0.243903
170 1 0.0162542 0.8713 0.299148
213 1 0.150523 0.885196 0.366851
55 1 0.266935 0.74038 0.344975
266 1 0.278373 0.90346 0.262432
305 2 0.441563 0.745836 0.443782
178 1 0.475602 0.875496 0.483421
165 1 0.448186 0.892394 0.318499
131 1 0.310745 0.896441 0.409402
157 1 0.745163 0.989678 0.465233
207 1 0.971571 0.777104 0.424809
74 1 0.553314 0.777981 0.372041
110 1 0.60821 0.930246 0.334689
141 1 0.723714 0.82337 0.351227
1 1 0.74763 0.978834 0.0827806
85 1 0.143958 0.620084 0.692921
34 1 0.080287 0.604977 0.559344
331 2 0.988898 0.701447 0.543087
321 2 0.100007 0.747776 0.737558
319 2 0.185667 0.689522 0.539802
115 1 0.786638 0.809282 0.824591
48 1 0.243674 0.583134 0.585485
243 1 0.392191 0.661487 0.613924
191 1 0.491665 0.546621 0.72268
98 1 0.492794 0.551057 0.550864
125 1 0.310008 0.623233 0.729676
214 1 0.524418 0.717063 0.545805
245 1 0.535087 0.697291 0.696377
58 1 0.66459 0.666029 0.618849
344 2 0.746061 0.759238 0.686974
80 1 0.434643 0.997711 0.584078
358 2 0.731148 0.538983 0.728216
283 1 0.00420191 0.684081 0.674024
355 2 0.76449 0.645918 0.516334
96 1 0.781058 0.543897 0.602722
20 1 0.854268 0.675339 0.604033
313 2 0.890082 0.599894 0.717004
94 1 0.944625 0.534189 0.614913
161 1 0.0973302 0.768717 0.597936
23 1 0.175364 0.869827 0.703186
17 1 0.0528299 0.924379 0.587245
101 1 0.196815 0.87889 0.539315
124 1 0.012363 0.842469 0.720048
192 1 0.620971 0.507504 0.65285
186 1 0.251429 0.751982 0.640921
37 1 0.95336 0.815865 0.884202
129 1 0.310169 0.913152 0.65714
45 1 0.430715 0.824872 0.613183
360 2 0.334443 0.873769 0.533606
56 1 0.37802 0.761937 0.757401
36 1 0.839365 0.931534 0.954866
346 2 0.547028 0.938693 0.581581
203 1 0.632341 0.821132 0.635779
215 1 0.669063 0.98319 0.597208
247 1 0.517601 0.850104 0.751434
277 1 0.763057 0.80653 0.543018
26 1 0.0629743 0.981687 0.760832
311 2 0.761042 0.897662 0.658266
121 1 0.858875 0.958089 0.567554
156 1 0.943583 0.819484 0.5599
270 1 0.866267 0.802741 0.688745
342 2 0.922937 0.918283 0.662409
347 2 0.749872 0.979474 0.845931
90 1 0.0143828 0.568301 0.776391
204 1 0.0609907 0.705598 0.858284
226 1 0.167079 0.584481 0.84553
273 1 0.0199715 0.560144 0.934659
175 1 0.191144 0.742403 0.968652
265 1 0.233026 0.719763 0.81239
106 1 0.164007 0.586992 1.01164
359 2 0.397586 0.52083 0.931984
341 2 0.431958 0.646066 0.786789
88 1 0.344697 0.627347 0.885407
63 1 0.495364 0.574115 0.871151
208 1 0.503407 0.725748 0.85021
86 1 0.900367 0.918834 0.792099
173 1 0.63173 0.593911 0.787211
350 2 0.595568 0.644453 0.897859
103 1 0.650588 0.746875 0.793497
102 1 0.748012 0.640366 0.89881
75 1 0.772184 0.650945 0.752196
42 1 0.902904 0.704269 0.799971
81 1 0.875083 0.555305 0.847367
3 1 0.911017 0.665857 0.964361
8 1 0.467059 0.683656 0.986248
340 2 0.106571 0.959616 0.92251
197 1 0.134679 0.845631 0.855485
68 1 0.254792 0.899824 0.96685
236 1 0.300449 0.760081 0.488678
69 1 0.420419 0.984971 0.7537
78 1 0.419704 0.963362 0.932847
143 1 0.306774 0.891423 0.813888
317 2 0.442106 0.874779 0.848879
39 1 0.363205 0.779079 0.903541
167 1 0.55349 0.958386 0.857766
352 2 0.583397 0.837289 0.866454
107 1 0.683159 0.897614 0.931491
67 1 0.628241 0.748209 0.955488
126 1 0.981529 0.974175 0.922976
230 1 0.666833 0.906249 0.77011
171 1 0.559258 0.998474 0.704444
327 2 0.750977 0.528958 0.961491
138 1 0.498203 0.834339 0.975933
244 1 0.770198 1.01965 0.718506
278 1 0.194297 0.999381 0.843543
187 1 0.645974 0.555474 0.512792
ITEM: TIMESTEP
20000000
ITEM: NUMBER OF ATOMS
360
ITEM: BOX BOUNDS pp pp pp
0.0000000000000000e+00 6.6943295008216896e+00
0.0000000000000000e+00 6.6943295008216896e+00
0.0000000000000000e+00 6.6943295008216896e+00
ITEM: ATOMS id type xs ys zs
228 1 0.0605694 0.100931 0.116509
276 1 0.20389 0.173472 0.191795
146 1 0.160061 0.207763 0.0416519
188 1 0.200099 0.0260655 0.175288
233 1 0.169442 0.0533972 0.0132764
114 1 0.99902 0.196604 0.215961
239 1 0.29929 0.138841 0.069257
57 1 0.463657 0.170839 0.188514
212 1 0.449806 0.120336 0.0422545
278 1 0.392696 0.023088 0.148136
54 1 0.614458 0.149821 0.127495
335 2 0.678689 0.0223036 0.151822
47 1 0.69671 0.050837 0.0266959
66 1 0.536583 0.422675 0.014368
253 1 0.579986 0.0563202 0.253658
307 2 0.901104 0.37973 0.433029
337 2 0.944576 0.178609 0.0873958
198 1 0.916773 0.0489028 0.184711
282 1 0.82644 0.132058 0.116853
235 1 0.945195 0.052515 0.0323993
93 1 0.103199 0.292591 0.169608
357 2 0.219056 0.293536 0.120655
202 1 0.0307573 0.419216 0.10491
140 1 0.0259843 0.28062 0.0329892
314 2 0.56304 0.0669332 0.00450707
11 1 0.102735 0.466098 0.259553
79 1 0.249902 0.416016 0.147708
152 1 0.333728 0.260349 0.171579
22 1 0.447459 0.276839 0.0587937
82 1 0.393667 0.423312 0.085928
84 1 0.299519 0.29447 0.0192652
60 1 0.48867 0.324819 0.214535
77 1 0.732659 0.251488 0.164203
254 1 0.595786 0.301334 0.111052
72 1 0.693237 0.425971 0.0627512
193 1 0.571479 0.461624 0.156483
29 1 0.647119 0.357425 0.24877
292 2 0.690416 0.464579 0.212385
30 1 0.890999 0.432982 0.0476142
137 1 0.878006 0.28668 0.0920175
288 1 0.955846 0.345075 0.215008
92 1 0.790325 0.396223 0.179619
325 2 0.10166 0.0897633 0.248237
113 1 0.165983 0.189798 0.350273
213 1 0.208111 0.0348011 0.328447
349 2 0.129098 0.0845481 0.421276
5 1 0.0680399 0.217953 0.46913
127 1 0.0181551 0.119457 0.35024
19 1 0.7804 0.332288 0.472657
347 2 0.431288 0.0338516 0.284479
227 1 0.373215 0.03294 0.411192
31 1 0.330984 0.11353 0.267262
353 2 0.270154 0.116612 0.398114
134 1 0.470858 0.151952 0.350175
324 2 0.409057 0.239534 0.275257
120 1 0.569671 0.488251 0.466354
336 2 0.478524 0.0687612 0.475587
229 1 0.728697 0.108746 0.248003
269 1 0.595853 0.21767 0.262654
171 1 0.628167 0.120514 0.402761
352 2 0.741274 0.290454 0.305689
187 1 0.694017 0.435823 0.370553
183 1 0.839427 0.385929 0.321218
43 1 0.161992 0.373193 0.0343678
4 1 0.856862 0.232781 0.249602
18 1 0.790502 0.055176 0.469303
160 1 0.773609 0.196659 0.383817
264 1 0.932049 0.120352 0.486091
189 1 0.875386 0.0831027 0.334266
280 1 0.227319 0.470924 0.368465
62 1 0.923868 0.49635 0.206659
285 1 0.212185 0.338082 0.275812
316 2 0.104413 0.433222 0.385125
279 1 0.184938 0.336868 0.442179
16 1 0.0641761 0.317496 0.335345
13 1 0.972857 0.453714 0.34979
287 1 0.316808 0.231715 0.364062
76 1 0.40986 0.456699 0.412596
298 2 0.304603 0.365975 0.381087
135 1 0.450831 0.307425 0.382817
206 1 0.355613 0.393411 0.271185
163 1 0.917639 0.257331 0.400854
219 1 0.611023 0.294928 0.399342
260 1 0.538739 0.42699 0.330457
95 1 0.0272052 0.375611 0.474798
108 1 0.209587 0.188424 0.497241
328 2 0.970352 0.00808795 0.442366
10 1 0.227207 0.0426738 0.495546
205 1 0.363375 0.161517 0.498083
99 1 0.513715 0.208454 0.499895
237 1 0.341787 0.308114 0.492665
49 1 0.757097 0.212679 0.0122288
151 1 0.133174 0.184085 0.62529
52 1 0.0575833 0.0401391 0.523845
172 1 0.236021 0.247813 0.736054
360 2 0.87134 0.482928 0.761297
322 2 0.916845 0.328406 0.968638
250 1 0.293951 0.14239 0.645068
80 1 0.447936 0.0819983 0.609181
334 2 0.328486 0.0267044 0.715804
41 1 0.409594 0.268581 0.620105
224 1 0.410967 0.130322 0.754495
6 1 0.5582 0.0601889 0.732395
262 1 0.542495 0.197151 0.655861
215 1 0.695465 0.144098 0.723339
221 1 0.591545 0.0608381 0.54623
50 1 0.702142 0.172844 0.533185
17 1 0.167164 0.0402625 0.642881
333 2 0.0138613 0.148471 0.580519
26 1 0.0225217 0.0663406 0.686422
217 1 0.99147 0.216383 0.696142
112 1 0.841508 0.13749 0.611746
244 1 0.85314 0.0446868 0.735921
194 1 0.949524 0.307787 0.845787
249 1 0.0286877 0.420996 0.626273
35 1 0.1719 0.359228 0.594704
327 2 0.0622938 0.292583 0.583716
345 2 0.240579 0.378885 0.755903
34 1 0.100374 0.313283 0.730752
116 1 0.181814 0.470762 0.682208
159 1 0.13197 0.487269 0.511079
354 2 0.28678 0.297662 0.616463
211 1 0.331395 0.415568 0.664401
182 1 0.485961 0.35973 0.529326
157 1 0.727267 0.0222018 0.613062
21 1 0.493542 0.355367 0.699979
117 1 0.720344 0.454315 0.536318
306 2 0.693219 0.390657 0.660479
96 1 0.637868 0.316549 0.560702
145 1 0.640225 0.299383 0.720736
243 1 0.279354 0.458051 0.520648
7 1 0.775627 0.292708 0.622223
105 1 0.875289 0.412803 0.555789
272 1 0.90838 0.347915 0.702619
168 1 0.924784 0.26875 0.551487
173 1 0.788478 0.484009 0.672163
149 1 0.106434 0.149606 0.780284
297 2 0.143786 0.0694379 0.865788
164 1 0.0558696 0.145013 0.945904
139 1 0.22029 0.17817 0.902138
355 2 0.0071271 0.0217917 0.813081
122 1 0.254827 0.0894022 0.790899
181 1 0.337774 0.0887445 0.927937
359 2 0.318494 0.196342 0.817793
281 1 0.418911 0.226048 0.897702
40 1 0.48372 0.0742988 0.893224
33 1 0.563615 0.211205 0.981054
59 1 0.545097 0.199625 0.817183
24 1 0.637267 0.089051 0.877728
192 1 0.574244 0.45227 0.619454
234 1 0.526106 0.493529 0.878331
90 1 0.88207 0.450306 0.89104
166 1 0.838267 0.215004 0.746334
251 1 0.909863 0.194794 0.96627
81 1 0.792476 0.130588 0.878374
201 1 0.956968 0.136577 0.819919
9 1 0.0277514 0.423694 0.946652
246 1 0.0958969 0.285994 0.883231
130 1 0.142019 0.431075 0.836497
242 1 0.00101917 0.448814 0.778974
153 1 0.250832 0.323404 0.875176
185 1 0.278361 0.463609 0.983399
199 1 0.361933 0.318788 0.779821
304 2 0.431382 0.427558 0.792868
271 1 0.31032 0.466005 0.820999
2 1 0.406255 0.390551 0.925903
240 1 0.68422 0.2433 0.867282
312 2 0.814572 0.0807983 0.985905
155 1 0.627827 0.445849 0.754352
286 1 0.664225 0.436259 0.906784
73 1 0.537869 0.343429 0.866422
339 2 0.6338 0.333987 0.987359
268 1 0.766501 0.368703 0.78709
71 1 0.781066 0.356149 0.946881
319 2 0.811778 0.261481 0.866241