
Host: cs005.hpc.nyu.edu

Timers On : Tue Nov 15 14:54:45 2022
Timers Off: Tue Nov 15 14:54:51 2022

Wall Time:        0.37 seconds

                                                       Time (seconds)
Module                                       User      System        Wall        Calls

--------------------------------------------------------------------------------------

**************************************************************************************
