ITEM: TIMESTEP
100000
ITEM: NUMBER OF ATOMS
400
ITEM: BOX BOUNDS pp pp pp
0.0000000000000000e+00 2.8284271247461902e+01
0.0000000000000000e+00 2.8284271247461902e+01
-7.0710678118654757e-01 7.0710678118654757e-01
ITEM: ATOMS id type xs ys zs
101 1 0.190883 0.347421 0.5
118 1 0.461778 0.500115 0.5
126 1 -0.000226362 0.220394 0.5
137 1 0.441984 0.0633389 0.5
173 1 0.435083 0.104376 0.5
90 1 0.10469 0.416457 0.5
308 1 0.341277 0.024948 0.5
209 1 0.215133 0.117611 0.5
23 1 0.226495 0.0387415 0.5
289 1 0.0690857 0.0301214 0.5
275 1 0.0179016 0.185881 0.5
69 1 0.26701 0.136312 0.5
26 1 0.239763 0.156959 0.5
213 1 0.179187 0.460378 0.5
389 1 0.0442198 0.49565 0.5
179 1 0.22258 0.185149 0.5
320 1 0.0944661 0.0580227 0.5
53 1 0.474792 0.0775131 0.5
248 1 0.379627 0.0256785 0.5
344 1 0.406285 0.276307 0.5
346 1 0.26861 0.181414 0.5
240 1 0.237084 0.0736299 0.5
354 1 0.039919 0.0753665 0.5
70 1 0.146959 0.0957649 0.5
366 1 0.245894 0.217576 0.5
39 1 0.286107 0.470471 0.5
208 1 0.0910947 0.460236 0.5
309 1 0.0434106 0.267757 0.5
122 1 0.303706 0.230332 0.5
195 1 0.461951 0.157321 0.5
29 1 0.376343 0.0994349 0.5
207 1 0.119064 0.123189 0.5
84 1 0.0471605 0.151909 0.5
377 1 0.44101 0.193528 0.5
278 1 0.409337 0.220808 0.5
115 1 0.0385203 0.399206 0.5
192 1 0.13975 0.0432173 0.5
175 1 0.361206 0.42133 0.5
224 1 0.275956 0.102558 0.5
171 1 0.465317 0.371057 0.5
316 1 0.0675295 0.326347 0.5
204 1 0.138958 0.368555 0.5
221 1 0.313009 0.271926 0.5
25 1 0.270544 0.318706 0.5
124 1 0.176835 0.273068 0.5
12 1 0.417934 0.0305931 0.5
215 1 0.333792 0.188023 0.5
328 1 0.131732 0.173674 0.5
35 1 0.169677 0.0245727 0.5
8 1 0.26315 0.283453 0.5
157 1 0.350736 0.233032 0.5
16 1 0.301566 0.1452 0.5
48 1 0.47277 0.0390644 0.5
106 1 0.379456 0.369908 0.5
391 1 0.491989 0.480509 0.5
298 1 0.0794941 0.102791 0.5
100 1 0.206085 0.295606 0.5
47 1 0.16983 0.22596 0.5
41 1 0.31006 0.381191 0.5
218 1 0.380789 0.305408 0.5
183 1 0.324174 0.457832 0.5
381 1 0.161919 0.14531 0.5
283 1 0.266257 0.377924 0.5
174 1 0.207441 0.420711 0.5
242 1 0.360413 0.49755 0.5
113 1 0.422308 0.46268 0.5
40 1 0.130636 0.467902 0.5
302 1 0.384486 0.178744 0.5
393 1 0.447046 0.432911 0.5
88 1 0.423528 0.344293 0.5
368 1 0.464373 0.292827 0.5
330 1 0.215096 0.480249 0.5
265 1 0.315997 0.337472 0.5
385 1 0.0101832 0.475381 0.5
165 1 0.124082 0.249574 0.5
62 1 0.241749 0.416403 0.5
339 1 0.43455 0.25128 0.5
363 1 0.0946294 0.348407 0.5
77 1 0.160256 0.430097 0.5
312 1 0.478615 0.410744 0.5
358 1 0.0068902 0.273867 0.5
194 1 0.199997 0.00277883 0.5
103 1 0.0573977 0.432219 0.5
380 1 0.114405 0.308782 0.5
133 1 0.0570121 0.360478 0.5
150 1 0.315527 0.421915 0.5
55 1 0.396811 0.427351 0.5
139 1 0.495036 0.441136 0.5
214 1 0.0828245 0.384567 0.5
362 1 0.234744 0.345646 0.5
288 1 0.40132 0.0722561 0.5
102 1 0.309142 0.0692223 0.5
285 1 0.151538 0.314046 0.5
206 1 0.109136 0.022574 0.5
87 1 0.323683 0.114344 0.5
367 1 0.347877 0.0689985 0.5
310 1 0.498958 0.301588 0.5
231 1 0.265942 0.0348601 0.5
369 1 0.339861 0.539108 0.5
210 1 0.154775 0.654397 0.5
51 1 0.47265 0.773501 0.5
326 1 0.258043 0.50867 0.5
30 1 0.119636 0.986016 0.5
216 1 0.0291224 0.535844 0.5
45 1 0.300855 0.644276 0.5
167 1 0.167212 0.981778 0.5
400 1 0.372108 0.787775 0.5
336 1 0.211807 0.663879 0.5
56 1 0.495784 0.519695 0.5
291 1 0.300576 0.996132 0.5
123 1 0.285181 0.575891 0.5
226 1 0.0336977 0.963504 0.5
281 1 0.313933 0.682879 0.5
72 1 0.48201 0.974568 0.5
211 1 0.413137 0.663548 0.5
249 1 0.194348 0.578476 0.5
203 1 0.296822 0.801554 0.5
259 1 0.217625 0.617907 0.5
234 1 0.392294 0.718381 0.5
307 1 0.436623 0.695874 0.5
9 1 0.479407 0.712726 0.5
197 1 0.417639 0.807025 0.5
52 1 0.244005 0.996532 0.5
145 1 0.180303 0.524361 0.5
297 1 0.0327944 0.903209 0.5
232 1 0.147677 0.55012 0.5
304 1 0.0536125 0.623063 0.5
147 1 0.369899 0.561059 0.5
351 1 0.156619 0.86626 0.5
160 1 0.483064 0.871514 0.5
27 1 0.26961 0.675894 0.5
318 1 0.367149 0.682049 0.5
245 1 0.00456228 0.814078 0.5
60 1 0.391422 0.960078 0.5
176 1 0.0992711 0.700309 0.5
189 1 0.154973 0.610526 0.5
271 1 0.196892 0.699697 0.5
186 1 0.241303 0.558375 0.5
359 1 0.465303 0.618983 0.5
263 1 0.410397 0.931809 0.5
345 1 0.464368 0.654897 0.5
319 1 0.282616 0.761599 0.5
162 1 0.364984 0.634431 0.5
15 1 0.442761 0.961771 0.5
219 1 0.44274 0.733132 0.5
300 1 0.12478 0.592196 0.5
196 1 0.14338 0.69761 0.5
140 1 0.143694 0.500523 0.5
83 1 0.115173 0.53865 0.5
68 1 0.289815 0.709177 0.5
243 1 0.413725 0.615324 0.5
253 1 0.138388 0.731405 0.5
54 1 0.204131 0.859408 0.5
10 1 0.357664 0.7224 0.5
222 1 0.0870278 0.602539 0.5
168 1 0.209686 0.742137 0.5
200 1 0.219176 0.829353 0.5
246 1 0.376811 0.899195 0.5
169 1 0.0563535 0.672766 0.5
239 1 0.237994 0.707265 0.5
191 1 0.255189 0.814479 0.5
258 1 0.287824 0.837962 0.5
205 1 0.45018 0.886633 0.5
97 1 0.317593 0.951892 0.5
355 1 0.443331 0.553781 0.5
212 1 0.479298 0.577968 0.5
158 1 0.164482 0.785712 0.5
164 1 0.225914 0.938078 0.5
19 1 0.348897 0.918674 0.5
49 1 0.416308 0.510002 0.5
117 1 0.0629583 0.883696 0.5
395 1 0.0853759 0.748357 0.5
241 1 0.0486315 0.712878 0.5
127 1 0.143988 0.833904 0.5
396 1 0.221567 0.779204 0.5
43 1 0.101519 0.64019 0.5
132 1 0.0561233 0.789809 0.5
348 1 0.0387456 0.837836 0.5
135 1 0.153043 0.949524 0.5
350 1 0.364991 0.599445 0.5
64 1 0.245284 0.905222 0.5
17 1 0.123658 0.874058 0.5
282 1 0.00690043 0.642099 0.5
236 1 0.294679 0.885922 0.5
66 1 0.0667131 0.927086 0.5
244 1 0.0964663 0.851901 0.5
279 1 0.0150052 0.741287 0.5
161 1 0.341604 0.870624 0.5
76 1 0.0691623 0.555856 0.5
50 1 0.304796 0.514786 0.5
386 1 0.0640318 0.983364 0.5
247 1 0.361589 0.989473 0.5
3 1 0.0885598 0.504608 0.5
313 1 0.614603 0.368495 0.5
112 1 0.590545 0.183064 0.5
290 1 0.546889 0.305868 0.5
130 1 0.765502 0.0131397 0.5
334 1 0.599171 0.30729 0.5
99 1 0.926052 0.116172 0.5
85 1 0.533876 0.193351 0.5
143 1 0.623332 0.0184495 0.5
277 1 0.705723 0.400087 0.5
220 1 0.829053 0.0401453 0.5
148 1 0.93596 0.17108 0.5
184 1 0.537283 0.264622 0.5
399 1 0.576189 0.39883 0.5
81 1 0.605619 0.08618 0.5
6 1 0.80482 0.245611 0.5
269 1 0.707468 0.0841595 0.5
287 1 0.732611 0.11712 0.5
329 1 0.899174 0.149667 0.5
306 1 0.516588 0.0527858 0.5
374 1 0.570123 0.443603 0.5
335 1 0.730908 0.0342171 0.5
4 1 0.935449 0.0745699 0.5
340 1 0.529737 0.439129 0.5
379 1 0.601282 0.23545 0.5
136 1 0.77687 0.418982 0.5
78 1 0.974201 0.406843 0.5
146 1 0.969279 0.202292 0.5
163 1 0.649587 0.133961 0.5
356 1 0.904679 0.28965 0.5
92 1 0.79302 0.0411748 0.5
198 1 0.817923 0.465848 0.5
337 1 0.544126 0.14497 0.5
44 1 0.894004 0.450204 0.5
105 1 0.582658 0.136054 0.5
107 1 0.595297 0.487334 0.5
38 1 0.879325 0.190066 0.5
188 1 0.974578 0.28818 0.5
270 1 0.851935 0.465812 0.5
159 1 0.807186 0.289776 0.5
390 1 0.783889 0.4708 0.5
250 1 0.720691 0.247476 0.5
67 1 0.790803 0.0750883 0.5
303 1 0.961363 0.366055 0.5
251 1 0.84084 0.163455 0.5
280 1 0.745652 0.321066 0.5
305 1 0.725811 0.205046 0.5
108 1 0.696369 0.142722 0.5
172 1 0.75664 0.0636137 0.5
227 1 0.873643 0.0813348 0.5
36 1 0.727658 0.362558 0.5
343 1 0.830707 0.341053 0.5
1 1 0.996807 0.140765 0.5
286 1 0.84677 0.256359 0.5
375 1 0.604188 0.416443 0.5
151 1 0.685987 0.193408 0.5
378 1 0.78019 0.221339 0.5
233 1 0.791401 0.1562 0.5
31 1 0.881484 0.314027 0.5
156 1 0.608299 0.269779 0.5
276 1 0.974313 0.0383022 0.5
37 1 0.696938 0.335885 0.5
95 1 0.64301 0.22867 0.5
384 1 0.841282 0.11463 0.5
252 1 0.735705 0.172349 0.5
262 1 0.797241 0.345811 0.5
177 1 0.783671 0.312205 0.5
22 1 0.860443 0.393523 0.5
327 1 0.746425 0.392566 0.5
325 1 0.668908 0.0637226 0.5
14 1 0.705008 0.446248 0.5
217 1 0.930778 0.255079 0.5
284 1 0.51134 0.339727 0.5
398 1 0.64111 0.0880625 0.5
331 1 0.922474 0.348365 0.5
24 1 0.574445 0.257112 0.5
365 1 0.694697 0.015343 0.5
254 1 0.748608 0.47677 0.5
155 1 0.637519 0.167617 0.5
333 1 0.559976 0.354219 0.5
273 1 0.661254 0.354775 0.5
11 1 0.757249 0.259021 0.5
256 1 0.967851 0.321263 0.5
314 1 0.932909 0.392557 0.5
324 1 0.671241 0.288578 0.5
166 1 0.711489 0.281034 0.5
373 1 0.574008 0.060673 0.5
301 1 0.809001 0.424832 0.5
5 1 0.568256 0.0165574 0.5
255 1 0.881927 0.245745 0.5
110 1 0.898402 0.0235911 0.5
230 1 0.671908 0.458884 0.5
116 1 0.55437 0.109135 0.5
121 1 0.51501 0.376054 0.5
322 1 0.889472 0.495837 0.5
138 1 0.998391 0.442386 0.5
268 1 0.710605 0.485764 0.5
152 1 0.998037 0.0812687 0.5
79 1 0.505367 0.170587 0.5
397 1 0.515318 0.11338 0.5
109 1 0.862321 0.0195994 0.5
267 1 0.51379 0.0131182 0.5
131 1 0.999183 0.355245 0.5
364 1 0.576794 0.540016 0.5
20 1 0.703495 0.583501 0.5
264 1 0.504616 0.754226 0.5
104 1 0.632079 0.887157 0.5
201 1 0.918245 0.630515 0.5
134 1 0.783262 0.857543 0.5
299 1 0.789275 0.576853 0.5
190 1 0.626069 0.628035 0.5
128 1 0.556554 0.508506 0.5
292 1 0.52094 0.790271 0.5
323 1 0.781894 0.507804 0.5
57 1 0.617534 0.792203 0.5
353 1 0.686887 0.93688 0.5
71 1 0.741542 0.603913 0.5
34 1 0.620684 0.669396 0.5
111 1 0.547178 0.607595 0.5
114 1 0.834285 0.509848 0.5
225 1 0.70005 0.870234 0.5
141 1 0.95635 0.891911 0.5
144 1 0.590862 0.601058 0.5
321 1 0.608704 0.553684 0.5
181 1 0.621061 0.746657 0.5
170 1 0.644627 0.919926 0.5
311 1 0.50685 0.629117 0.5
257 1 0.587864 0.883134 0.5
315 1 0.820037 0.83234 0.5
129 1 0.771212 0.673222 0.5
394 1 0.669621 0.634455 0.5
63 1 0.557574 0.835637 0.5
272 1 0.74686 0.640799 0.5
294 1 0.703847 0.652351 0.5
89 1 0.793222 0.769047 0.5
65 1 0.775022 0.822171 0.5
223 1 0.850013 0.553271 0.5
342 1 0.522202 0.86955 0.5
338 1 0.610431 0.85015 0.5
59 1 0.918378 0.540769 0.5
228 1 0.58781 0.713817 0.5
352 1 0.652732 0.770597 0.5
341 1 0.827084 0.683473 0.5
94 1 0.678105 0.555855 0.5
86 1 0.812745 0.796763 0.5
370 1 0.579106 0.924856 0.5
154 1 0.742747 0.763244 0.5
383 1 0.677682 0.674311 0.5
28 1 0.865373 0.614635 0.5
75 1 0.761858 0.712373 0.5
296 1 0.715922 0.95942 0.5
32 1 0.976888 0.673414 0.5
61 1 0.964527 0.614865 0.5
349 1 0.717367 0.910757 0.5
266 1 0.636858 0.964445 0.5
387 1 0.817105 0.983251 0.5
13 1 0.684895 0.82258 0.5
317 1 0.696008 0.743256 0.5
98 1 0.888655 0.702879 0.5
185 1 0.86286 0.74181 0.5
119 1 0.828421 0.583865 0.5
142 1 0.881049 0.529359 0.5
261 1 0.685723 0.521478 0.5
392 1 0.748651 0.800165 0.5
180 1 0.955644 0.78574 0.5
295 1 0.980105 0.550686 0.5
332 1 0.835499 0.869436 0.5
202 1 0.926602 0.717907 0.5
193 1 0.668986 0.589775 0.5
382 1 0.916245 0.946525 0.5
182 1 0.579802 0.809475 0.5
371 1 0.685974 0.77659 0.5
42 1 0.89516 0.749258 0.5
46 1 0.978831 0.758911 0.5
235 1 0.570698 0.646444 0.5
260 1 0.996812 0.50961 0.5
58 1 0.878745 0.57826 0.5
96 1 0.730236 0.730648 0.5
229 1 0.930306 0.808202 0.5
149 1 0.96961 0.831795 0.5
178 1 0.889787 0.652308 0.5
153 1 0.669327 0.889125 0.5
361 1 0.940055 0.972351 0.5
91 1 0.921335 0.77331 0.5
388 1 0.926255 0.860351 0.5
357 1 0.852349 0.971371 0.5
347 1 0.552201 0.695897 0.5
33 1 0.848429 0.905101 0.5
372 1 0.910958 0.580375 0.5
120 1 0.587779 0.75168 0.5
376 1 0.791038 0.897606 0.5
18 1 0.891326 0.799195 0.5
237 1 0.641786 0.506049 0.5
93 1 0.751916 0.932819 0.5
293 1 0.787787 0.63506 0.5
2 1 0.753722 0.540121 0.5
73 1 0.99858 0.915191 0.5
274 1 0.543088 0.927361 0.5
82 1 0.794444 0.938072 0.5
238 1 0.742498 0.980366 0.5
80 1 0.516666 0.68873 0.5
360 1 0.542868 0.973778 0.5
199 1 0.512611 0.593639 0.5
74 1 0.950634 0.570583 0.5
125 1 0.66721 0.994423 0.5
7 1 0.992098 0.585708 0.5
21 1 0.536397 0.548466 0.5
187 1 0.992235 0.96418 0.5
