ITEM: TIMESTEP
100000
ITEM: NUMBER OF ATOMS
400
ITEM: BOX BOUNDS pp pp pp
0.0000000000000000e+00 2.2360679774997898e+01
0.0000000000000000e+00 2.2360679774997898e+01
-5.5901699437494745e-01 5.5901699437494745e-01
ITEM: ATOMS id type xs ys zs
346 1 0.287575 0.487666 0.5
243 1 0.040377 0.33977 0.5
378 1 0.10368 0.470434 0.5
118 1 0.0978133 0.355154 0.5
289 1 0.284975 0.107388 0.5
42 1 0.300952 0.424651 0.5
104 1 0.0188834 0.254021 0.5
358 1 0.320071 0.0673787 0.5
336 1 0.0387997 0.175898 0.5
126 1 0.199458 0.090785 0.5
18 1 0.480347 0.489951 0.5
16 1 0.262249 0.449281 0.5
64 1 0.437644 0.17191 0.5
350 1 0.366596 0.0599241 0.5
58 1 0.203207 0.0450731 0.5
151 1 0.385635 0.00429568 0.5
36 1 0.302321 0.150397 0.5
98 1 0.276951 0.0344185 0.5
210 1 0.388749 0.338363 0.5
374 1 0.455997 0.125467 0.5
382 1 0.184477 0.40024 0.5
284 1 0.0806974 0.191397 0.5
110 1 0.246089 0.0739877 0.5
356 1 0.463951 0.0388339 0.5
218 1 0.00923445 0.211228 0.5
334 1 0.0799744 0.146693 0.5
219 1 0.282227 0.190099 0.5
182 1 0.355393 0.113215 0.5
203 1 0.379239 0.183664 0.5
122 1 0.473543 0.211665 0.5
293 1 0.488703 0.0740797 0.5
282 1 0.336423 0.322556 0.5
186 1 0.162997 0.0642099 0.5
309 1 0.240933 0.120097 0.5
311 1 0.195521 0.136184 0.5
217 1 0.336396 0.186491 0.5
146 1 0.400109 0.142402 0.5
379 1 0.0539375 0.385086 0.5
194 1 0.119287 0.0924513 0.5
254 1 0.0775004 0.013919 0.5
149 1 0.195168 0.258127 0.5
32 1 0.412865 0.234393 0.5
236 1 0.155052 0.241181 0.5
253 1 0.39769 0.0937301 0.5
209 1 0.36064 0.235486 0.5
176 1 0.390467 0.273328 0.5
30 1 0.343379 0.279346 0.5
204 1 0.381518 0.381391 0.5
127 1 0.498411 0.142382 0.5
262 1 0.129556 0.2058 0.5
235 1 0.0653514 0.232447 0.5
189 1 0.186526 0.308867 0.5
263 1 0.276864 0.242414 0.5
305 1 0.451927 0.261399 0.5
90 1 0.258874 0.336645 0.5
319 1 0.409667 0.0456865 0.5
119 1 0.48665 0.434491 0.5
77 1 0.11216 0.42309 0.5
114 1 0.237269 0.177593 0.5
100 1 0.230622 0.225151 0.5
103 1 0.498495 0.344561 0.5
340 1 0.0506438 0.114542 0.5
302 1 0.188252 0.185235 0.5
367 1 0.144124 0.456838 0.5
259 1 0.318045 0.232784 0.5
276 1 0.431144 0.353222 0.5
60 1 0.222655 0.00789137 0.5
81 1 0.137537 0.322995 0.5
24 1 0.0172976 0.0799683 0.5
192 1 0.170311 0.352342 0.5
108 1 0.30102 0.292222 0.5
138 1 0.467852 0.303381 0.5
389 1 0.307478 0.363741 0.5
180 1 0.0265736 0.0310568 0.5
233 1 0.107258 0.285491 0.5
141 1 0.0702331 0.433341 0.5
386 1 0.228214 0.288349 0.5
355 1 0.335431 0.397227 0.5
333 1 0.263306 0.384985 0.5
23 1 0.199497 0.468418 0.5
248 1 0.445162 0.452549 0.5
107 1 0.330828 0.487169 0.5
165 1 0.144388 0.387505 0.5
174 1 0.344824 0.44572 0.5
242 1 0.452086 0.40584 0.5
197 1 0.169419 0.00747495 0.5
265 1 0.140363 0.129987 0.5
321 1 0.42261 0.305449 0.5
301 1 0.0598007 0.0625301 0.5
260 1 0.0382778 0.480952 0.5
245 1 0.218285 0.362313 0.5
369 1 0.406447 0.485046 0.5
150 1 0.107545 0.24096 0.5
153 1 0.402531 0.421408 0.5
268 1 0.494604 0.38961 0.5
288 1 0.0206133 0.419649 0.5
57 1 0.0477305 0.287375 0.5
94 1 0.127973 0.0153586 0.5
188 1 0.497922 0.251485 0.5
313 1 0.164633 0.50102 0.5
193 1 0.472999 0.706577 0.5
91 1 0.371961 0.67043 0.5
308 1 0.0401816 0.576211 0.5
117 1 0.263882 0.984046 0.5
278 1 0.12827 0.521739 0.5
270 1 0.167532 0.551105 0.5
152 1 0.375085 0.879333 0.5
44 1 0.240623 0.498998 0.5
239 1 0.30351 0.975124 0.5
131 1 0.4075 0.640297 0.5
159 1 0.429912 0.677593 0.5
307 1 0.0877804 0.555616 0.5
171 1 0.359131 0.543767 0.5
52 1 0.445743 0.860669 0.5
65 1 0.0977497 0.96349 0.5
280 1 0.0892783 0.599479 0.5
136 1 0.453093 0.99281 0.5
22 1 0.1902 0.592789 0.5
140 1 0.252465 0.548607 0.5
105 1 0.39016 0.574344 0.5
49 1 0.054644 0.965497 0.5
215 1 0.367178 0.620195 0.5
155 1 0.325548 0.633252 0.5
387 1 0.332457 0.583654 0.5
21 1 0.20778 0.528666 0.5
33 1 0.288088 0.713756 0.5
1 1 0.474397 0.949428 0.5
383 1 0.0419104 0.69201 0.5
154 1 0.10739 0.641349 0.5
324 1 0.145765 0.624056 0.5
341 1 0.286467 0.602603 0.5
247 1 0.0177485 0.941264 0.5
41 1 0.321791 0.799094 0.5
164 1 0.392495 0.961424 0.5
328 1 0.0451385 0.739504 0.5
12 1 0.131436 0.583467 0.5
279 1 0.14462 0.678848 0.5
231 1 0.236256 0.604217 0.5
304 1 0.247069 0.813981 0.5
199 1 0.400961 0.715467 0.5
20 1 0.149656 0.730713 0.5
53 1 0.0917425 0.690931 0.5
142 1 0.255766 0.6803 0.5
269 1 0.170427 0.873173 0.5
46 1 0.346511 0.714494 0.5
286 1 0.0131917 0.988384 0.5
59 1 0.00819889 0.765591 0.5
89 1 0.0369426 0.852489 0.5
397 1 0.210932 0.64447 0.5
86 1 0.269985 0.757238 0.5
255 1 0.259574 0.859304 0.5
106 1 0.466169 0.822487 0.5
163 1 0.169151 0.781841 0.5
10 1 0.20856 0.689452 0.5
385 1 0.210217 0.761878 0.5
111 1 0.280949 0.645121 0.5
216 1 0.31292 0.75767 0.5
202 1 0.114836 0.811281 0.5
298 1 0.12241 0.916049 0.5
322 1 0.20416 0.809128 0.5
135 1 0.163088 0.82807 0.5
394 1 0.376313 0.751751 0.5
375 1 0.492819 0.617406 0.5
54 1 0.499246 0.996223 0.5
220 1 0.0751422 0.776304 0.5
300 1 0.323671 0.923687 0.5
238 1 0.244181 0.722097 0.5
364 1 0.407897 0.779557 0.5
73 1 0.218089 0.924304 0.5
28 1 0.211145 0.865729 0.5
148 1 0.128582 0.858119 0.5
391 1 0.369029 0.805075 0.5
222 1 0.340782 0.840206 0.5
393 1 0.446966 0.749876 0.5
213 1 0.0785952 0.874022 0.5
372 1 0.0709537 0.821811 0.5
125 1 0.498574 0.753511 0.5
296 1 0.403676 0.845216 0.5
344 1 0.0622687 0.646234 0.5
251 1 0.446888 0.620898 0.5
348 1 0.0161622 0.897271 0.5
76 1 0.0569462 0.911707 0.5
384 1 0.469881 0.900608 0.5
349 1 0.27739 0.940107 0.5
201 1 0.368056 0.924616 0.5
15 1 0.435785 0.565419 0.5
315 1 0.1433 0.957588 0.5
129 1 0.18668 0.963636 0.5
79 1 0.167041 0.9209 0.5
335 1 0.411321 0.917158 0.5
297 1 0.298873 0.554648 0.5
195 1 0.312203 0.677512 0.5
398 1 0.349495 0.967919 0.5
357 1 0.0739084 0.506991 0.5
47 1 0.291977 0.892088 0.5
244 1 0.454037 0.524794 0.5
377 1 0.466766 0.657377 0.5
264 1 0.409797 0.530083 0.5
261 1 0.480445 0.568387 0.5
227 1 0.00197746 0.639888 0.5
96 1 0.00136957 0.821223 0.5
329 1 0.986632 0.163771 0.5
185 1 0.868162 0.457643 0.5
224 1 0.589097 0.487274 0.5
56 1 0.558952 0.393021 0.5
48 1 0.943436 0.121774 0.5
4 1 0.581562 0.295164 0.5
35 1 0.534324 0.0936881 0.5
181 1 0.621566 0.268606 0.5
338 1 0.697581 0.0856903 0.5
184 1 0.655125 0.112525 0.5
34 1 0.931634 0.0685496 0.5
93 1 0.568508 0.0411996 0.5
102 1 0.579625 0.103633 0.5
124 1 0.657262 0.047926 0.5
68 1 0.781596 0.0781396 0.5
51 1 0.994398 0.11844 0.5
88 1 0.753465 0.0412311 0.5
166 1 0.71108 0.492541 0.5
31 1 0.525361 0.307536 0.5
8 1 0.613613 0.0664515 0.5
332 1 0.891381 0.0857939 0.5
179 1 0.833553 0.104141 0.5
156 1 0.545803 0.268841 0.5
161 1 0.658852 0.372823 0.5
109 1 0.560141 0.142702 0.5
183 1 0.995231 0.364414 0.5
221 1 0.827869 0.27297 0.5
175 1 0.518264 0.206522 0.5
392 1 0.663455 0.251398 0.5
250 1 0.796287 0.133637 0.5
331 1 0.924 0.160155 0.5
368 1 0.857112 0.183612 0.5
281 1 0.649884 0.328842 0.5
380 1 0.588867 0.181774 0.5
240 1 0.687397 0.197267 0.5
257 1 0.668273 0.156275 0.5
359 1 0.634672 0.202676 0.5
72 1 0.95904 0.218064 0.5
376 1 0.631638 0.470539 0.5
92 1 0.782509 0.227034 0.5
67 1 0.866175 0.138239 0.5
9 1 0.838148 0.00715703 0.5
361 1 0.792814 0.0235979 0.5
123 1 0.576354 0.23479 0.5
121 1 0.745922 0.19524 0.5
229 1 0.723666 0.234603 0.5
339 1 0.756728 0.153126 0.5
207 1 0.78186 0.271429 0.5
347 1 0.812922 0.17861 0.5
232 1 0.70169 0.130986 0.5
249 1 0.606485 0.379807 0.5
69 1 0.769515 0.363463 0.5
173 1 0.74234 0.103085 0.5
13 1 0.824651 0.221432 0.5
256 1 0.845998 0.416538 0.5
113 1 0.905542 0.201373 0.5
395 1 0.89206 0.339984 0.5
223 1 0.60706 0.136853 0.5
84 1 0.605195 0.3304 0.5
316 1 0.691314 0.316448 0.5
277 1 0.844791 0.358102 0.5
11 1 0.610318 0.0224975 0.5
27 1 0.70961 0.278764 0.5
320 1 0.826422 0.459826 0.5
43 1 0.856587 0.304141 0.5
327 1 0.915734 0.242532 0.5
390 1 0.641244 0.422895 0.5
326 1 0.716711 0.368675 0.5
208 1 0.739214 0.40472 0.5
323 1 0.80835 0.326572 0.5
190 1 0.74702 0.303468 0.5
371 1 0.782593 0.449907 0.5
26 1 0.91732 0.296512 0.5
271 1 0.992564 0.315253 0.5
143 1 0.803192 0.40609 0.5
351 1 0.730836 0.447836 0.5
272 1 0.910133 0.487761 0.5
178 1 0.944965 0.36483 0.5
147 1 0.86527 0.245591 0.5
3 1 0.974528 0.0698878 0.5
360 1 0.956752 0.264509 0.5
303 1 0.516613 0.466507 0.5
70 1 0.888596 0.385491 0.5
17 1 0.835789 0.055474 0.5
145 1 0.908831 0.43529 0.5
275 1 0.679141 0.461759 0.5
365 1 0.690553 0.412038 0.5
205 1 0.893258 0.0396832 0.5
312 1 0.545341 0.349615 0.5
134 1 0.704213 0.0325875 0.5
29 1 0.975992 0.0101383 0.5
40 1 0.535317 0.429624 0.5
14 1 0.518874 0.0399171 0.5
198 1 0.958007 0.4387 0.5
162 1 0.994053 0.489613 0.5
74 1 0.92342 0.00705788 0.5
120 1 0.853177 0.497256 0.5
97 1 0.527066 0.564049 0.5
381 1 0.572916 0.54622 0.5
291 1 0.62103 0.522647 0.5
25 1 0.625958 0.578267 0.5
400 1 0.940299 0.897407 0.5
363 1 0.952305 0.508972 0.5
396 1 0.827662 0.533487 0.5
366 1 0.882978 0.52981 0.5
172 1 0.959508 0.609066 0.5
61 1 0.683066 0.562803 0.5
45 1 0.710162 0.598752 0.5
115 1 0.740946 0.945453 0.5
112 1 0.752468 0.666538 0.5
38 1 0.805454 0.661092 0.5
66 1 0.770498 0.528966 0.5
246 1 0.914807 0.804759 0.5
353 1 0.949523 0.834066 0.5
19 1 0.746427 0.622392 0.5
87 1 0.83963 0.697344 0.5
399 1 0.79586 0.713637 0.5
273 1 0.914876 0.761607 0.5
128 1 0.549557 0.507066 0.5
234 1 0.596261 0.649558 0.5
39 1 0.61512 0.700641 0.5
295 1 0.679152 0.628874 0.5
299 1 0.66651 0.519466 0.5
95 1 0.865137 0.56893 0.5
325 1 0.638263 0.916905 0.5
137 1 0.982033 0.541367 0.5
342 1 0.802409 0.567558 0.5
130 1 0.895956 0.707061 0.5
83 1 0.833418 0.597258 0.5
63 1 0.583886 0.589658 0.5
200 1 0.709668 0.982302 0.5
157 1 0.531921 0.664521 0.5
139 1 0.688712 0.738022 0.5
318 1 0.730663 0.718571 0.5
5 1 0.858456 0.648338 0.5
388 1 0.955684 0.686661 0.5
258 1 0.75334 0.577442 0.5
206 1 0.536917 0.606846 0.5
212 1 0.545375 0.746002 0.5
187 1 0.730532 0.768512 0.5
62 1 0.767641 0.748856 0.5
287 1 0.887295 0.613054 0.5
230 1 0.515905 0.706682 0.5
237 1 0.70022 0.667048 0.5
160 1 0.765916 0.799454 0.5
55 1 0.925069 0.635694 0.5
317 1 0.87331 0.784695 0.5
82 1 0.576397 0.961014 0.5
158 1 0.572951 0.696359 0.5
71 1 0.750361 0.857493 0.5
294 1 0.861558 0.940328 0.5
274 1 0.844753 0.750052 0.5
314 1 0.870767 0.836677 0.5
37 1 0.505746 0.527677 0.5
267 1 0.623786 0.963167 0.5
170 1 0.517661 0.815906 0.5
177 1 0.723639 0.5358 0.5
352 1 0.683193 0.783905 0.5
50 1 0.808343 0.834219 0.5
373 1 0.791172 0.87462 0.5
211 1 0.865626 0.881877 0.5
6 1 0.601373 0.750608 0.5
285 1 0.669848 0.879689 0.5
78 1 0.677702 0.945119 0.5
306 1 0.898551 0.913155 0.5
75 1 0.641374 0.737481 0.5
354 1 0.75954 0.994033 0.5
168 1 0.60999 0.876723 0.5
225 1 0.811605 0.780296 0.5
241 1 0.956642 0.970285 0.5
169 1 0.562022 0.793932 0.5
80 1 0.532024 0.889979 0.5
226 1 0.577944 0.913722 0.5
101 1 0.6633 0.699125 0.5
292 1 0.709672 0.910184 0.5
310 1 0.712645 0.832153 0.5
362 1 0.653168 0.836336 0.5
167 1 0.879284 0.986979 0.5
196 1 0.915508 0.957791 0.5
191 1 0.974724 0.870045 0.5
214 1 0.636164 0.787571 0.5
345 1 0.607113 0.826968 0.5
330 1 0.806637 0.975247 0.5
228 1 0.790165 0.614699 0.5
116 1 0.907066 0.857835 0.5
370 1 0.754653 0.902328 0.5
99 1 0.561437 0.858123 0.5
343 1 0.99344 0.711091 0.5
266 1 0.797693 0.922909 0.5
132 1 0.528458 0.953327 0.5
2 1 0.634655 0.621511 0.5
290 1 0.928357 0.562565 0.5
7 1 0.960853 0.787864 0.5
252 1 0.659875 0.984474 0.5
133 1 0.962364 0.739585 0.5
337 1 0.548415 0.996877 0.5
85 1 0.975877 0.923152 0.5
283 1 0.506581 0.856128 0.5
144 1 0.999799 0.595636 0.5
