ITEM: TIMESTEP
100000
ITEM: NUMBER OF ATOMS
400
ITEM: BOX BOUNDS pp pp pp
0.0000000000000000e+00 2.1081851067789195e+01
0.0000000000000000e+00 2.1081851067789195e+01
-5.2704627669472992e-01 5.2704627669472992e-01
ITEM: ATOMS id type xs ys zs
180 1 0.278159 0.486724 0.5
6 1 0.494364 0.389085 0.5
324 1 0.401903 0.4114 0.5
115 1 0.0153659 0.446297 0.5
198 1 0.214869 0.0350541 0.5
312 1 0.0350608 0.232984 0.5
62 1 0.39895 0.358269 0.5
155 1 0.0948474 0.329116 0.5
266 1 0.125711 0.0126548 0.5
314 1 0.0426004 0.109191 0.5
289 1 0.34557 0.065875 0.5
28 1 0.423608 0.0522155 0.5
20 1 0.381682 0.0281501 0.5
142 1 0.286709 0.43915 0.5
71 1 0.496841 0.447978 0.5
347 1 0.0355755 0.0516939 0.5
297 1 0.0748667 0.0327058 0.5
64 1 0.131717 0.0597365 0.5
215 1 0.183074 0.0744279 0.5
366 1 0.303168 0.04806 0.5
32 1 0.00825985 0.191403 0.5
340 1 0.0814106 0.0846792 0.5
234 1 0.170431 0.0252069 0.5
17 1 0.359623 0.113228 0.5
107 1 0.380896 0.160447 0.5
113 1 0.444733 0.123584 0.5
322 1 0.347173 0.430593 0.5
63 1 0.13308 0.104874 0.5
302 1 0.249564 0.0676946 0.5
93 1 0.471196 0.0331717 0.5
295 1 0.115272 0.191011 0.5
85 1 0.433499 0.326151 0.5
122 1 0.0629327 0.184133 0.5
162 1 0.0772926 0.139922 0.5
267 1 0.311776 0.0985245 0.5
177 1 0.265034 0.187353 0.5
94 1 0.277933 0.138116 0.5
191 1 0.403642 0.104465 0.5
219 1 0.492934 0.17052 0.5
139 1 0.416469 0.460621 0.5
2 1 0.0704582 0.370656 0.5
232 1 0.139396 0.150476 0.5
67 1 0.236859 0.113721 0.5
362 1 0.344775 0.215152 0.5
368 1 0.324497 0.154025 0.5
77 1 0.432684 0.247157 0.5
345 1 0.491575 0.123427 0.5
95 1 0.149992 0.244857 0.5
216 1 0.214073 0.166408 0.5
97 1 0.224453 0.215386 0.5
152 1 0.0394579 0.330683 0.5
272 1 0.0630134 0.277891 0.5
303 1 0.169727 0.286292 0.5
379 1 0.183632 0.130092 0.5
338 1 0.167009 0.193857 0.5
43 1 0.301187 0.224326 0.5
119 1 0.462582 0.213648 0.5
246 1 0.112527 0.275453 0.5
237 1 0.140112 0.366391 0.5
288 1 0.184881 0.358424 0.5
38 1 0.274854 0.355644 0.5
306 1 0.399985 0.205099 0.5
53 1 0.349668 0.375811 0.5
192 1 0.0483838 0.413459 0.5
360 1 0.212767 0.264012 0.5
8 1 0.146683 0.414462 0.5
244 1 0.248982 0.316026 0.5
190 1 0.380382 0.251368 0.5
378 1 0.0205815 0.289259 0.5
373 1 0.137079 0.318475 0.5
9 1 0.100171 0.422499 0.5
126 1 0.201895 0.31746 0.5
354 1 0.331498 0.259962 0.5
393 1 0.25846 0.250935 0.5
200 1 0.289931 0.289383 0.5
49 1 0.441257 0.171522 0.5
397 1 0.0802042 0.475068 0.5
245 1 0.205473 0.403357 0.5
173 1 0.348159 0.301916 0.5
382 1 0.395323 0.299879 0.5
70 1 0.442882 0.372788 0.5
309 1 0.453471 0.430116 0.5
47 1 0.478859 0.338074 0.5
228 1 0.462408 0.479959 0.5
365 1 0.22877 0.359563 0.5
273 1 0.250512 0.408952 0.5
178 1 0.321432 0.339255 0.5
274 1 0.299634 0.394149 0.5
249 1 0.0830976 0.229534 0.5
158 1 0.18173 0.442522 0.5
78 1 0.128964 0.46584 0.5
257 1 0.222496 0.475762 0.5
325 1 0.326425 0.490697 0.5
12 1 0.453436 0.28609 0.5
293 1 0.483407 0.0777857 0.5
301 1 0.015289 0.00796265 0.5
161 1 0.0367593 0.494091 0.5
394 1 0.372459 0.471648 0.5
217 1 0.175996 0.490872 0.5
33 1 0.336757 0.0150516 0.5
131 1 0.00908297 0.393038 0.5
65 1 0.466033 0.9875 0.5
323 1 0.443753 0.939034 0.5
330 1 0.128575 0.85366 0.5
127 1 0.237859 0.94571 0.5
396 1 0.0256256 0.963489 0.5
260 1 0.305132 0.540497 0.5
331 1 0.146287 0.909516 0.5
398 1 0.0653213 0.942792 0.5
96 1 0.173445 0.872174 0.5
84 1 0.397894 0.612878 0.5
5 1 0.255466 0.989901 0.5
72 1 0.243348 0.615943 0.5
36 1 0.275474 0.911156 0.5
355 1 0.473796 0.683394 0.5
132 1 0.115641 0.949416 0.5
372 1 0.482234 0.909041 0.5
160 1 0.162539 0.537402 0.5
336 1 0.14416 0.581508 0.5
389 1 0.324095 0.587921 0.5
307 1 0.421003 0.52215 0.5
151 1 0.449099 0.638167 0.5
212 1 0.0513546 0.580271 0.5
236 1 0.255563 0.662338 0.5
167 1 0.361688 0.697374 0.5
13 1 0.353642 0.643263 0.5
269 1 0.421895 0.990432 0.5
218 1 0.0610126 0.67086 0.5
255 1 0.0641526 0.534759 0.5
376 1 0.483372 0.597434 0.5
263 1 0.195307 0.581857 0.5
105 1 0.317667 0.682741 0.5
213 1 0.269654 0.575667 0.5
359 1 0.377545 0.74591 0.5
253 1 0.0382293 0.628589 0.5
235 1 0.0975669 0.568728 0.5
222 1 0.187373 0.629635 0.5
369 1 0.287219 0.631084 0.5
256 1 0.412704 0.710877 0.5
175 1 0.418673 0.896926 0.5
280 1 0.0518682 0.770672 0.5
88 1 0.173192 0.678302 0.5
130 1 0.00622694 0.675115 0.5
124 1 0.291631 0.772858 0.5
229 1 0.459352 0.729189 0.5
337 1 0.0892649 0.903425 0.5
254 1 0.169117 0.822917 0.5
35 1 0.105994 0.7514 0.5
174 1 0.0901439 0.614277 0.5
205 1 0.111547 0.671421 0.5
145 1 0.424111 0.759804 0.5
37 1 0.00998368 0.789626 0.5
51 1 0.081728 0.713025 0.5
128 1 0.195137 0.743941 0.5
264 1 0.138191 0.631401 0.5
193 1 0.313926 0.729679 0.5
163 1 0.421425 0.806622 0.5
311 1 0.0273369 0.835602 0.5
252 1 0.145055 0.772172 0.5
120 1 0.3735 0.804136 0.5
221 1 0.403419 0.849337 0.5
298 1 0.478765 0.771087 0.5
168 1 0.203298 0.977229 0.5
342 1 0.0707523 0.811448 0.5
400 1 0.134843 0.714824 0.5
287 1 0.266091 0.707313 0.5
189 1 0.21491 0.701109 0.5
197 1 0.372728 0.896938 0.5
317 1 0.219677 0.899916 0.5
335 1 0.209931 0.84769 0.5
29 1 0.205082 0.790251 0.5
44 1 0.244098 0.760425 0.5
80 1 0.309887 0.816966 0.5
138 1 0.354025 0.850556 0.5
361 1 0.465741 0.815634 0.5
149 1 0.339958 0.771031 0.5
259 1 0.355843 0.52747 0.5
328 1 0.00580423 0.573492 0.5
208 1 0.0470484 0.883333 0.5
384 1 0.0838873 0.856168 0.5
110 1 0.347769 0.945968 0.5
15 1 0.494678 0.857686 0.5
112 1 0.401463 0.659658 0.5
329 1 0.11676 0.810386 0.5
251 1 0.255268 0.814673 0.5
248 1 0.306117 0.86463 0.5
83 1 0.324324 0.906232 0.5
1 1 0.396196 0.946998 0.5
52 1 0.39985 0.561398 0.5
286 1 0.256309 0.528101 0.5
364 1 0.157054 0.975534 0.5
327 1 0.253458 0.864695 0.5
261 1 0.0262701 0.718168 0.5
45 1 0.309754 0.978239 0.5
134 1 0.188552 0.933714 0.5
238 1 0.438014 0.591129 0.5
118 1 0.0737166 0.987343 0.5
262 1 0.208474 0.523264 0.5
300 1 0.465832 0.542964 0.5
59 1 0.0111067 0.917321 0.5
240 1 0.109465 0.517396 0.5
21 1 0.661903 0.499069 0.5
98 1 0.618892 0.0336039 0.5
54 1 0.503085 0.245181 0.5
73 1 0.80809 0.464854 0.5
68 1 0.996108 0.143027 0.5
60 1 0.805565 0.419027 0.5
103 1 0.58799 0.171841 0.5
233 1 0.664186 0.0572601 0.5
140 1 0.803231 0.0582178 0.5
104 1 0.99015 0.097521 0.5
87 1 0.758126 0.0270785 0.5
224 1 0.729784 0.125299 0.5
209 1 0.776227 0.141951 0.5
66 1 0.507593 0.00462975 0.5
75 1 0.937157 0.0926355 0.5
82 1 0.89759 0.187412 0.5
150 1 0.769493 0.493938 0.5
147 1 0.585564 0.223427 0.5
89 1 0.679438 0.153478 0.5
275 1 0.679779 0.209247 0.5
183 1 0.727296 0.176803 0.5
391 1 0.900039 0.132124 0.5
186 1 0.983664 0.0504798 0.5
114 1 0.527861 0.206634 0.5
316 1 0.632229 0.187381 0.5
230 1 0.727511 0.297843 0.5
279 1 0.856129 0.0962212 0.5
159 1 0.856808 0.488881 0.5
169 1 0.948544 0.138845 0.5
69 1 0.599732 0.284468 0.5
170 1 0.689383 0.333199 0.5
381 1 0.631075 0.247497 0.5
74 1 0.848507 0.0277185 0.5
101 1 0.811209 0.109721 0.5
313 1 0.937743 0.230956 0.5
92 1 0.746862 0.45515 0.5
27 1 0.540764 0.463948 0.5
179 1 0.688436 0.273291 0.5
283 1 0.722005 0.243256 0.5
133 1 0.76748 0.267108 0.5
211 1 0.755529 0.214109 0.5
157 1 0.76622 0.0946649 0.5
55 1 0.811855 0.176433 0.5
22 1 0.956761 0.186054 0.5
48 1 0.645667 0.30503 0.5
367 1 0.801456 0.224181 0.5
385 1 0.84557 0.141186 0.5
56 1 0.988393 0.251955 0.5
129 1 0.962 0.289825 0.5
353 1 0.97593 0.475891 0.5
250 1 0.93348 0.0448915 0.5
172 1 0.527894 0.344015 0.5
296 1 0.829414 0.316466 0.5
326 1 0.648743 0.353079 0.5
121 1 0.852837 0.206063 0.5
24 1 0.868692 0.294746 0.5
10 1 0.543593 0.111402 0.5
123 1 0.623133 0.0947741 0.5
23 1 0.596793 0.335675 0.5
81 1 0.721665 0.367076 0.5
148 1 0.82622 0.271369 0.5
392 1 0.890907 0.241021 0.5
225 1 0.889793 0.00206735 0.5
79 1 0.631145 0.453011 0.5
226 1 0.585343 0.383543 0.5
46 1 0.680775 0.392723 0.5
57 1 0.813561 0.36799 0.5
125 1 0.883286 0.341614 0.5
40 1 0.914963 0.282528 0.5
182 1 0.960226 0.374953 0.5
204 1 0.712495 0.0716768 0.5
399 1 0.63424 0.139023 0.5
294 1 0.628806 0.401055 0.5
292 1 0.765544 0.368661 0.5
315 1 0.585126 0.0731565 0.5
388 1 0.542402 0.404004 0.5
7 1 0.588767 0.438871 0.5
281 1 0.738322 0.411024 0.5
166 1 0.776004 0.314695 0.5
357 1 0.931152 0.329201 0.5
31 1 0.567036 0.0241924 0.5
371 1 0.540678 0.15807 0.5
41 1 0.589731 0.499097 0.5
358 1 0.587291 0.12236 0.5
86 1 0.866234 0.393368 0.5
61 1 0.91488 0.378362 0.5
194 1 0.969439 0.41827 0.5
332 1 0.853342 0.4412 0.5
305 1 0.68051 0.45107 0.5
352 1 0.922791 0.430819 0.5
383 1 0.528614 0.0546673 0.5
339 1 0.900026 0.471902 0.5
203 1 0.700336 0.0253182 0.5
334 1 0.683001 0.103409 0.5
3 1 0.511992 0.289848 0.5
276 1 0.557723 0.263922 0.5
343 1 0.885082 0.0589552 0.5
239 1 0.992749 0.327955 0.5
164 1 0.51439 0.953079 0.5
171 1 0.51176 0.550255 0.5
58 1 0.944259 0.598885 0.5
108 1 0.858011 0.655587 0.5
185 1 0.772247 0.548129 0.5
146 1 0.607489 0.986703 0.5
154 1 0.582956 0.840739 0.5
25 1 0.545559 0.871356 0.5
181 1 0.507154 0.728742 0.5
241 1 0.528264 0.826689 0.5
90 1 0.819461 0.57201 0.5
370 1 0.897054 0.519733 0.5
135 1 0.905369 0.678626 0.5
277 1 0.812113 0.511214 0.5
319 1 0.688208 0.536451 0.5
247 1 0.554066 0.530111 0.5
144 1 0.622494 0.529241 0.5
206 1 0.651831 0.699774 0.5
91 1 0.685942 0.602161 0.5
344 1 0.964652 0.65882 0.5
333 1 0.95905 0.995335 0.5
143 1 0.558547 0.595777 0.5
320 1 0.723259 0.569887 0.5
50 1 0.660098 0.646606 0.5
100 1 0.821023 0.687998 0.5
199 1 0.853291 0.608787 0.5
26 1 0.899763 0.634242 0.5
156 1 0.954626 0.544589 0.5
184 1 0.513501 0.63113 0.5
195 1 0.596865 0.566421 0.5
136 1 0.616308 0.772594 0.5
377 1 0.708827 0.682957 0.5
109 1 0.653622 0.569023 0.5
188 1 0.757063 0.757603 0.5
34 1 0.75127 0.604234 0.5
231 1 0.922604 0.725075 0.5
395 1 0.859961 0.736975 0.5
278 1 0.573668 0.789202 0.5
258 1 0.525167 0.776708 0.5
117 1 0.569012 0.690489 0.5
30 1 0.575629 0.638859 0.5
196 1 0.807859 0.636215 0.5
284 1 0.804049 0.730674 0.5
11 1 0.556019 0.746367 0.5
374 1 0.612347 0.72346 0.5
42 1 0.612381 0.667504 0.5
14 1 0.612514 0.611363 0.5
243 1 0.7199 0.638963 0.5
387 1 0.80166 0.778358 0.5
116 1 0.592904 0.941309 0.5
165 1 0.708917 0.739331 0.5
346 1 0.763403 0.706531 0.5
271 1 0.774878 0.854678 0.5
290 1 0.760231 0.660866 0.5
201 1 0.809202 0.823185 0.5
270 1 0.954803 0.77955 0.5
321 1 0.939103 0.502078 0.5
350 1 0.657936 0.749083 0.5
99 1 0.595657 0.893469 0.5
348 1 0.761686 0.811684 0.5
363 1 0.701895 0.794429 0.5
282 1 0.831763 0.863397 0.5
227 1 0.866214 0.833898 0.5
356 1 0.896097 0.764073 0.5
102 1 0.658469 0.813559 0.5
4 1 0.670755 0.871083 0.5
390 1 0.716016 0.845244 0.5
375 1 0.879726 0.886306 0.5
207 1 0.852956 0.788899 0.5
153 1 0.549876 0.923271 0.5
39 1 0.639646 0.905444 0.5
137 1 0.787142 0.897225 0.5
386 1 0.73398 0.887747 0.5
310 1 0.832752 0.912763 0.5
214 1 0.911891 0.811295 0.5
111 1 0.86545 0.555216 0.5
265 1 0.628174 0.859929 0.5
176 1 0.789076 0.947065 0.5
351 1 0.703801 0.980701 0.5
299 1 0.927238 0.958701 0.5
268 1 0.958211 0.825599 0.5
76 1 0.518638 0.683533 0.5
318 1 0.973639 0.943357 0.5
308 1 0.642559 0.955869 0.5
380 1 0.685047 0.916668 0.5
202 1 0.840436 0.970864 0.5
141 1 0.931454 0.862242 0.5
19 1 0.986283 0.861731 0.5
187 1 0.753869 0.978107 0.5
341 1 0.96692 0.709727 0.5
291 1 0.72768 0.513791 0.5
16 1 0.73415 0.935943 0.5
349 1 0.912088 0.565403 0.5
285 1 0.887091 0.935405 0.5
220 1 0.550171 0.98197 0.5
242 1 0.924847 0.908013 0.5
223 1 0.991457 0.617853 0.5
106 1 0.995049 0.522703 0.5
210 1 0.657415 0.998217 0.5
304 1 0.505145 0.504367 0.5
18 1 0.801036 0.998797 0.5
