ITEM: TIMESTEP
100000
ITEM: NUMBER OF ATOMS
400
ITEM: BOX BOUNDS pp pp pp
0.0000000000000000e+00 1.9069251784911849e+01
0.0000000000000000e+00 1.9069251784911849e+01
-4.7673129462279618e-01 4.7673129462279618e-01
ITEM: ATOMS id type xs ys zs
284 1 0.465293 0.344518 0.5
3 1 0.055888 0.00721939 0.5
22 1 0.105096 0.0192266 0.5
14 1 0.155875 0.0193693 0.5
195 1 0.213094 0.0253789 0.5
13 1 0.266915 0.0339455 0.5
20 1 0.405086 0.00522885 0.5
21 1 0.0304231 0.0609584 0.5
6 1 0.0806328 0.0662565 0.5
16 1 0.13074 0.0679703 0.5
193 1 0.318065 0.0390377 0.5
17 1 0.370967 0.0463908 0.5
19 1 0.42368 0.0555738 0.5
40 1 0.474633 0.0565636 0.5
129 1 0.482897 0.480078 0.5
25 1 0.182216 0.0775015 0.5
35 1 0.237774 0.0763176 0.5
26 1 0.288479 0.0877345 0.5
27 1 0.339809 0.0849876 0.5
18 1 0.389028 0.092577 0.5
29 1 0.446363 0.0981671 0.5
33 1 0.0555457 0.111833 0.5
24 1 0.104645 0.11303 0.5
34 1 0.155726 0.125551 0.5
37 1 0.207695 0.124689 0.5
38 1 0.262935 0.135752 0.5
48 1 0.314167 0.13551 0.5
28 1 0.364674 0.143796 0.5
59 1 0.472272 0.148034 0.5
23 1 0.0237502 0.151397 0.5
259 1 0.0784396 0.155336 0.5
53 1 0.127503 0.166143 0.5
55 1 0.178852 0.172329 0.5
68 1 0.419643 0.143431 0.5
41 1 0.0450506 0.203676 0.5
52 1 0.0964325 0.204159 0.5
57 1 0.236439 0.179074 0.5
45 1 0.28587 0.182927 0.5
58 1 0.336863 0.183906 0.5
69 1 0.40144 0.189598 0.5
231 1 0.451824 0.19428 0.5
260 1 0.0179089 0.248952 0.5
44 1 0.147741 0.213224 0.5
36 1 0.202765 0.220043 0.5
75 1 0.260821 0.226903 0.5
47 1 0.310089 0.230558 0.5
70 1 0.363399 0.230407 0.5
262 1 0.425652 0.237788 0.5
273 1 0.474006 0.248029 0.5
63 1 0.0680573 0.251811 0.5
54 1 0.120607 0.257602 0.5
43 1 0.17134 0.256327 0.5
79 1 0.229373 0.266664 0.5
49 1 0.283381 0.276266 0.5
46 1 0.336651 0.271722 0.5
253 1 0.38859 0.281274 0.5
100 1 0.437716 0.289046 0.5
60 1 0.375911 0.466221 0.5
51 1 0.0394672 0.296192 0.5
62 1 0.0930107 0.302975 0.5
56 1 0.143466 0.312188 0.5
65 1 0.200066 0.312513 0.5
77 1 0.252814 0.318202 0.5
86 1 0.364562 0.324729 0.5
140 1 0.326821 0.458219 0.5
61 1 0.0622045 0.347434 0.5
67 1 0.308625 0.319857 0.5
291 1 0.414699 0.337539 0.5
119 1 0.494478 0.293305 0.5
300 1 0.0322686 0.397797 0.5
64 1 0.112855 0.355738 0.5
74 1 0.165341 0.3585 0.5
76 1 0.218214 0.359059 0.5
85 1 0.277181 0.366353 0.5
80 1 0.329743 0.367193 0.5
261 1 0.382774 0.376547 0.5
78 1 0.433499 0.384929 0.5
103 1 0.0791896 0.49104 0.5
73 1 0.0879865 0.399606 0.5
84 1 0.136773 0.400271 0.5
95 1 0.189013 0.405157 0.5
66 1 0.243002 0.412448 0.5
96 1 0.302104 0.416669 0.5
90 1 0.353978 0.415601 0.5
130 1 0.40538 0.424947 0.5
109 1 0.455775 0.432229 0.5
271 1 0.492929 0.385738 0.5
93 1 0.0541805 0.445445 0.5
92 1 0.104427 0.447178 0.5
72 1 0.160208 0.446667 0.5
105 1 0.212913 0.457963 0.5
87 1 0.264751 0.457618 0.5
127 1 0.426207 0.479477 0.5
310 1 0.0288491 0.491278 0.5
2 1 0.00401656 0.0164723 0.5
50 1 0.451963 0.00564415 0.5
82 1 0.131654 0.493856 0.5
71 1 0.00789807 0.347186 0.5
11 1 0.00301258 0.107471 0.5
241 1 0.49788 0.198808 0.5
5 1 0.197257 0.978486 0.5
104 1 0.182102 0.503756 0.5
7 1 0.247437 0.984681 0.5
128 1 0.288973 0.505826 0.5
312 1 0.340909 0.50471 0.5
110 1 0.394009 0.517172 0.5
89 1 0.452352 0.525126 0.5
151 1 0.00590785 0.676916 0.5
112 1 0.0490897 0.536452 0.5
106 1 0.0979471 0.540176 0.5
97 1 0.148413 0.544275 0.5
118 1 0.20708 0.548067 0.5
117 1 0.259205 0.549099 0.5
136 1 0.307884 0.558577 0.5
88 1 0.359771 0.555374 0.5
311 1 0.417415 0.560873 0.5
111 1 0.0223226 0.588993 0.5
122 1 0.0730523 0.588555 0.5
135 1 0.129235 0.593122 0.5
124 1 0.179631 0.589976 0.5
113 1 0.22921 0.590936 0.5
120 1 0.466586 0.573137 0.5
132 1 0.0401372 0.636588 0.5
116 1 0.278773 0.603784 0.5
125 1 0.329202 0.603339 0.5
138 1 0.379561 0.605296 0.5
108 1 0.429016 0.6103 0.5
322 1 0.481216 0.624275 0.5
15 1 0.302263 0.989796 0.5
153 1 0.0910411 0.639084 0.5
143 1 0.144936 0.647944 0.5
123 1 0.19808 0.643923 0.5
126 1 0.248755 0.648955 0.5
83 1 0.300976 0.652946 0.5
115 1 0.352357 0.654594 0.5
148 1 0.40495 0.656466 0.5
158 1 0.457645 0.66864 0.5
144 1 0.0613084 0.681162 0.5
114 1 0.115284 0.689523 0.5
134 1 0.172834 0.692651 0.5
137 1 0.22243 0.695896 0.5
107 1 0.270912 0.705718 0.5
167 1 0.324936 0.69679 0.5
157 1 0.376497 0.702471 0.5
341 1 0.423715 0.719404 0.5
142 1 0.0289437 0.72435 0.5
133 1 0.08309 0.73055 0.5
154 1 0.134231 0.736155 0.5
145 1 0.185684 0.740613 0.5
156 1 0.246549 0.746837 0.5
147 1 0.296842 0.748519 0.5
150 1 0.479134 0.721932 0.5
152 1 0.0488555 0.776651 0.5
159 1 0.346495 0.744456 0.5
178 1 0.392939 0.761 0.5
373 1 0.443163 0.768263 0.5
370 1 0.102374 0.780079 0.5
166 1 0.156002 0.78278 0.5
176 1 0.206039 0.786783 0.5
187 1 0.266796 0.794077 0.5
149 1 0.317035 0.801951 0.5
362 1 0.371506 0.804841 0.5
179 1 0.420767 0.814384 0.5
361 1 0.469999 0.820679 0.5
369 1 0.0217784 0.822396 0.5
162 1 0.0795667 0.825417 0.5
163 1 0.126712 0.834446 0.5
155 1 0.182753 0.832724 0.5
168 1 0.232952 0.843952 0.5
177 1 0.283604 0.851863 0.5
189 1 0.336253 0.848845 0.5
190 1 0.391002 0.860158 0.5
169 1 0.442631 0.868138 0.5
172 1 0.0428647 0.867404 0.5
174 1 0.0968867 0.874858 0.5
164 1 0.14664 0.881495 0.5
165 1 0.19644 0.882712 0.5
175 1 0.249954 0.89267 0.5
186 1 0.309531 0.894252 0.5
381 1 0.490062 0.872581 0.5
182 1 0.0149673 0.909576 0.5
173 1 0.0671771 0.918086 0.5
184 1 0.169092 0.930928 0.5
188 1 0.361519 0.901644 0.5
9 1 0.410272 0.909759 0.5
391 1 0.459462 0.914997 0.5
194 1 0.117104 0.922059 0.5
185 1 0.224865 0.936521 0.5
197 1 0.276741 0.944726 0.5
196 1 0.329938 0.942062 0.5
198 1 0.378844 0.951035 0.5
199 1 0.432163 0.958133 0.5
39 1 0.483454 0.964936 0.5
192 1 0.0320738 0.957687 0.5
183 1 0.084639 0.964572 0.5
4 1 0.133378 0.97416 0.5
98 1 0.236131 0.505156 0.5
8 1 0.352177 0.997964 0.5
364 1 0.497447 0.774653 0.5
102 1 0.997691 0.446686 0.5
213 1 0.560472 0.0138565 0.5
204 1 0.611626 0.0172626 0.5
215 1 0.664298 0.0226508 0.5
217 1 0.768306 0.0442128 0.5
272 1 0.525548 0.24439 0.5
308 1 0.866521 0.483759 0.5
202 1 0.531931 0.0581333 0.5
233 1 0.719057 0.0247922 0.5
218 1 0.816731 0.0483296 0.5
399 1 0.869786 0.0496635 0.5
210 1 0.922985 0.0443224 0.5
12 1 0.977246 0.058497 0.5
101 1 0.971621 0.488077 0.5
212 1 0.580212 0.0631361 0.5
214 1 0.633767 0.0667869 0.5
216 1 0.692431 0.0686809 0.5
224 1 0.739027 0.0841672 0.5
238 1 0.791773 0.0916892 0.5
220 1 0.845086 0.093912 0.5
1 1 0.893943 0.0990468 0.5
230 1 0.946136 0.0986404 0.5
221 1 0.555373 0.11081 0.5
222 1 0.605988 0.108358 0.5
226 1 0.659768 0.114356 0.5
236 1 0.705958 0.132426 0.5
227 1 0.75693 0.137682 0.5
219 1 0.813471 0.136625 0.5
251 1 0.523374 0.15224 0.5
223 1 0.574711 0.154862 0.5
243 1 0.628892 0.155345 0.5
225 1 0.675384 0.173463 0.5
228 1 0.733133 0.187535 0.5
240 1 0.865677 0.141893 0.5
31 1 0.920581 0.14856 0.5
42 1 0.974597 0.152251 0.5
91 1 0.920739 0.488953 0.5
234 1 0.785732 0.183688 0.5
239 1 0.839193 0.187216 0.5
229 1 0.892693 0.191665 0.5
32 1 0.941859 0.205544 0.5
252 1 0.555458 0.29443 0.5
232 1 0.551899 0.199117 0.5
242 1 0.602176 0.201149 0.5
235 1 0.639346 0.23538 0.5
246 1 0.688798 0.222012 0.5
247 1 0.754911 0.238218 0.5
257 1 0.804943 0.2388 0.5
249 1 0.857314 0.238947 0.5
248 1 0.913294 0.246332 0.5
250 1 0.967617 0.252006 0.5
263 1 0.61542 0.28428 0.5
244 1 0.665998 0.277225 0.5
237 1 0.716988 0.272916 0.5
255 1 0.779331 0.285433 0.5
267 1 0.830931 0.28311 0.5
269 1 0.886729 0.290694 0.5
270 1 0.939734 0.293995 0.5
285 1 0.576899 0.249417 0.5
245 1 0.567526 0.344762 0.5
265 1 0.627175 0.337382 0.5
254 1 0.697004 0.324369 0.5
256 1 0.749525 0.329596 0.5
279 1 0.991085 0.296323 0.5
316 1 0.816442 0.480399 0.5
282 1 0.515778 0.338435 0.5
266 1 0.805671 0.332206 0.5
299 1 0.856598 0.33687 0.5
277 1 0.907895 0.349562 0.5
298 1 0.95773 0.343817 0.5
258 1 0.993918 0.199292 0.5
99 1 0.599292 0.381746 0.5
293 1 0.667812 0.367287 0.5
278 1 0.724368 0.373148 0.5
268 1 0.77751 0.376417 0.5
288 1 0.828838 0.380846 0.5
289 1 0.877894 0.390036 0.5
280 1 0.928401 0.396028 0.5
264 1 0.549665 0.391704 0.5
276 1 0.639743 0.411399 0.5
294 1 0.694412 0.412942 0.5
283 1 0.744206 0.423314 0.5
275 1 0.798553 0.423235 0.5
297 1 0.846381 0.430363 0.5
287 1 0.893716 0.440434 0.5
81 1 0.98189 0.391922 0.5
292 1 0.562249 0.452713 0.5
304 1 0.611591 0.457119 0.5
325 1 0.663423 0.463085 0.5
295 1 0.716819 0.465298 0.5
290 1 0.94598 0.443604 0.5
321 1 0.531806 0.491143 0.5
286 1 0.766462 0.472125 0.5
181 1 0.952842 0.00295412 0.5
315 1 0.583651 0.498721 0.5
274 1 0.51042 0.43552 0.5
30 1 0.506668 0.0121869 0.5
211 1 0.500978 0.10433 0.5
281 1 0.553769 0.542763 0.5
394 1 0.691991 0.980196 0.5
207 1 0.796932 0.990219 0.5
306 1 0.786564 0.520422 0.5
307 1 0.837399 0.528812 0.5
318 1 0.891806 0.531803 0.5
327 1 0.943582 0.538914 0.5
313 1 0.604021 0.550755 0.5
353 1 0.651743 0.557067 0.5
336 1 0.705841 0.559898 0.5
346 1 0.756051 0.568582 0.5
317 1 0.803829 0.573702 0.5
309 1 0.855321 0.576135 0.5
191 1 0.980417 0.959277 0.5
301 1 0.515924 0.584947 0.5
303 1 0.571382 0.59602 0.5
333 1 0.622957 0.601676 0.5
326 1 0.673572 0.608045 0.5
324 1 0.724192 0.613367 0.5
347 1 0.774562 0.619597 0.5
337 1 0.907131 0.578944 0.5
320 1 0.967364 0.580747 0.5
323 1 0.538048 0.635607 0.5
160 1 0.588312 0.6414 0.5
329 1 0.827144 0.624019 0.5
340 1 0.87756 0.62001 0.5
319 1 0.930256 0.628751 0.5
121 1 0.984556 0.629672 0.5
146 1 0.507766 0.678904 0.5
332 1 0.64286 0.648881 0.5
335 1 0.691496 0.656752 0.5
334 1 0.743167 0.660451 0.5
345 1 0.800134 0.664175 0.5
350 1 0.851578 0.667215 0.5
131 1 0.899864 0.672938 0.5
330 1 0.950995 0.675513 0.5
139 1 0.556587 0.683581 0.5
331 1 0.610991 0.69003 0.5
342 1 0.661771 0.701286 0.5
343 1 0.713229 0.70351 0.5
356 1 0.766006 0.706386 0.5
349 1 0.821913 0.707712 0.5
328 1 0.870612 0.716279 0.5
383 1 0.529581 0.729274 0.5
352 1 0.579035 0.731476 0.5
351 1 0.630061 0.741448 0.5
354 1 0.68103 0.751482 0.5
355 1 0.73971 0.74783 0.5
338 1 0.840687 0.760795 0.5
360 1 0.924722 0.720032 0.5
359 1 0.976851 0.720053 0.5
314 1 0.687178 0.509977 0.5
170 1 0.551374 0.77553 0.5
366 1 0.603677 0.785634 0.5
348 1 0.792105 0.75007 0.5
380 1 0.891627 0.764453 0.5
339 1 0.948448 0.768376 0.5
171 1 0.99049 0.863502 0.5
344 1 0.653293 0.79225 0.5
377 1 0.710932 0.791736 0.5
367 1 0.762705 0.79527 0.5
358 1 0.811565 0.803801 0.5
387 1 0.861826 0.808163 0.5
161 1 0.91748 0.812443 0.5
368 1 0.969164 0.815375 0.5
363 1 0.520323 0.824924 0.5
180 1 0.570765 0.82789 0.5
382 1 0.621122 0.833888 0.5
357 1 0.678896 0.840811 0.5
384 1 0.731228 0.837801 0.5
376 1 0.783037 0.84459 0.5
392 1 0.538429 0.874228 0.5
372 1 0.589152 0.876833 0.5
374 1 0.648907 0.882629 0.5
375 1 0.833732 0.851774 0.5
379 1 0.886055 0.853538 0.5
378 1 0.940556 0.858844 0.5
206 1 0.74808 0.983729 0.5
200 1 0.511665 0.918037 0.5
201 1 0.566867 0.923202 0.5
365 1 0.700997 0.884612 0.5
395 1 0.75442 0.885836 0.5
396 1 0.802556 0.899834 0.5
397 1 0.853594 0.896049 0.5
389 1 0.904163 0.906202 0.5
390 1 0.960693 0.904916 0.5
10 1 0.534758 0.967927 0.5
371 1 0.616039 0.92052 0.5
393 1 0.672301 0.928084 0.5
385 1 0.724331 0.934095 0.5
386 1 0.778301 0.943736 0.5
388 1 0.829429 0.946568 0.5
400 1 0.882257 0.952927 0.5
209 1 0.931831 0.950822 0.5
203 1 0.58817 0.968821 0.5
205 1 0.643427 0.969505 0.5
296 1 0.737383 0.519042 0.5
208 1 0.846467 0.99641 0.5
398 1 0.899845 1.00014 0.5
302 1 0.636039 0.510156 0.5
305 1 0.502784 0.532407 0.5
141 1 0.997717 0.768336 0.5
94 1 0.995951 0.534536 0.5
