ITEM: TIMESTEP
100000
ITEM: NUMBER OF ATOMS
400
ITEM: BOX BOUNDS pp pp pp
0.0000000000000000e+00 2.0519567041703080e+01
0.0000000000000000e+00 2.0519567041703080e+01
-5.1298917604257699e-01 5.1298917604257699e-01
ITEM: ATOMS id type xs ys zs
217 1 0.209271 0.0208903 0.5
166 1 0.199581 0.971791 0.5
149 1 0.254254 0.0535765 0.5
360 1 0.321193 0.0778036 0.5
57 1 0.387711 0.0534373 0.5
161 1 0.456462 1.00151 0.5
344 1 0.60238 0.972343 0.5
26 1 0.695632 0.983561 0.5
388 1 0.716874 0.941813 0.5
374 1 0.773247 0.913046 0.5
351 1 0.825058 0.918329 0.5
185 1 0.977029 0.993126 0.5
3 1 0.982836 0.0844116 0.5
139 1 0.984908 0.13641 0.5
188 1 0.0626191 0.0469329 0.5
262 1 0.107528 0.0394206 0.5
111 1 0.239109 0.94435 0.5
46 1 0.316548 0.141549 0.5
367 1 0.435573 0.0429519 0.5
366 1 0.423594 0.0883319 0.5
28 1 0.52164 0.0668249 0.5
109 1 0.601308 0.0670833 0.5
157 1 0.694579 0.0294851 0.5
56 1 0.754914 0.972301 0.5
80 1 0.831438 0.973735 0.5
10 1 0.955761 0.0428852 0.5
338 1 0.838242 0.104886 0.5
245 1 0.00524541 0.0377513 0.5
112 1 0.13552 0.103957 0.5
67 1 0.206873 0.0698993 0.5
326 1 0.249527 0.159017 0.5
105 1 0.361737 0.151962 0.5
396 1 0.366989 0.101502 0.5
98 1 0.403478 0.135322 0.5
214 1 0.560778 0.0429189 0.5
190 1 0.600204 0.0181204 0.5
310 1 0.709575 0.0835583 0.5
240 1 0.754117 0.0691571 0.5
333 1 0.850238 0.0254683 0.5
152 1 0.802698 0.0561166 0.5
349 1 0.876316 0.0746921 0.5
265 1 0.0307278 0.0884652 0.5
236 1 0.153296 0.150196 0.5
229 1 0.182379 0.110554 0.5
127 1 0.277434 0.111267 0.5
49 1 0.292976 0.183211 0.5
4 1 0.428911 0.188241 0.5
364 1 0.505749 0.115829 0.5
267 1 0.60425 0.115034 0.5
114 1 0.655645 0.0866674 0.5
356 1 0.685227 0.135433 0.5
290 1 0.742505 0.0237894 0.5
8 1 0.797776 0.009873 0.5
336 1 0.787857 0.103524 0.5
7 1 0.928152 0.0786461 0.5
100 1 0.0909573 0.0953242 0.5
213 1 0.120511 0.233429 0.5
347 1 0.199312 0.164511 0.5
284 1 0.469813 0.0870933 0.5
218 1 0.485987 0.172394 0.5
108 1 0.710058 0.213218 0.5
294 1 0.727472 0.167367 0.5
78 1 0.95934 0.1782 0.5
81 1 0.0808182 0.153146 0.5
133 1 0.0199632 0.181387 0.5
384 1 0.0664118 0.212269 0.5
84 1 0.235232 0.205121 0.5
244 1 0.196412 0.234723 0.5
251 1 0.332861 0.212403 0.5
122 1 0.463123 0.132272 0.5
150 1 0.539229 0.161283 0.5
180 1 0.641286 0.151061 0.5
160 1 0.672903 0.185225 0.5
287 1 0.745754 0.124887 0.5
201 1 0.761946 0.212383 0.5
120 1 0.824021 0.160249 0.5
363 1 0.906289 0.18112 0.5
182 1 0.0368822 0.134706 0.5
272 1 0.0505537 0.256438 0.5
309 1 0.0931934 0.274966 0.5
226 1 0.204384 0.285715 0.5
29 1 0.159451 0.200903 0.5
398 1 0.115268 0.184105 0.5
17 1 0.371267 0.261295 0.5
370 1 0.465911 0.22062 0.5
47 1 0.519717 0.216369 0.5
325 1 0.55497 0.104267 0.5
208 1 0.585406 0.165298 0.5
368 1 0.660524 0.234321 0.5
117 1 0.774732 0.164759 0.5
69 1 0.971001 0.318699 0.5
55 1 0.0101229 0.289891 0.5
315 1 0.0569005 0.303396 0.5
41 1 0.273272 0.293516 0.5
373 1 0.286527 0.234465 0.5
82 1 0.380076 0.202331 0.5
85 1 0.492416 0.325532 0.5
176 1 0.501264 0.265571 0.5
27 1 0.619701 0.197114 0.5
391 1 0.808166 0.209573 0.5
126 1 0.863587 0.197723 0.5
276 1 0.872333 0.150185 0.5
230 1 0.906642 0.120154 0.5
387 1 0.998445 0.24165 0.5
385 1 0.167523 0.322381 0.5
301 1 0.232367 0.322922 0.5
269 1 0.243377 0.25631 0.5
191 1 0.352414 0.376279 0.5
102 1 0.359845 0.315946 0.5
140 1 0.419922 0.24362 0.5
280 1 0.571705 0.211993 0.5
194 1 0.607532 0.244717 0.5
395 1 0.699904 0.259851 0.5
135 1 0.743767 0.265839 0.5
392 1 0.795294 0.266558 0.5
292 1 0.93768 0.275221 0.5
113 1 0.950103 0.227836 0.5
189 1 0.92674 0.327775 0.5
350 1 0.0659076 0.350886 0.5
380 1 0.159977 0.264572 0.5
324 1 0.201796 0.358566 0.5
296 1 0.27093 0.346639 0.5
362 1 0.31596 0.272231 0.5
342 1 0.407294 0.291914 0.5
48 1 0.455948 0.288658 0.5
308 1 0.443082 0.334696 0.5
37 1 0.545441 0.307966 0.5
299 1 0.560426 0.261368 0.5
35 1 0.709897 0.306324 0.5
261 1 0.901467 0.228687 0.5
340 1 0.913956 0.373191 0.5
304 1 0.0186089 0.341863 0.5
88 1 0.0167729 0.436939 0.5
250 1 0.158362 0.377478 0.5
130 1 0.250644 0.390409 0.5
89 1 0.314699 0.32914 0.5
225 1 0.30197 0.384244 0.5
328 1 0.39472 0.352728 0.5
76 1 0.435167 0.386052 0.5
257 1 0.531751 0.359227 0.5
314 1 0.589925 0.357279 0.5
12 1 0.652906 0.278893 0.5
101 1 0.686538 0.395088 0.5
169 1 0.845812 0.242725 0.5
306 1 0.880497 0.275994 0.5
394 1 0.120866 0.314435 0.5
313 1 0.112805 0.36665 0.5
198 1 0.12145 0.414838 0.5
184 1 0.280682 0.428222 0.5
285 1 0.390351 0.407687 0.5
255 1 0.479549 0.422769 0.5
43 1 0.483466 0.371464 0.5
168 1 0.590373 0.308435 0.5
34 1 0.679602 0.343229 0.5
297 1 0.770788 0.311762 0.5
352 1 0.835689 0.300389 0.5
154 1 0.843212 0.358428 0.5
18 1 0.966763 0.368823 0.5
145 1 0.0797832 0.449542 0.5
223 1 0.183892 0.458588 0.5
159 1 0.194761 0.409793 0.5
390 1 0.336435 0.429266 0.5
65 1 0.557379 0.447301 0.5
62 1 0.527756 0.407671 0.5
162 1 0.587377 0.408706 0.5
19 1 0.633426 0.323502 0.5
263 1 0.633162 0.373209 0.5
321 1 0.736987 0.356868 0.5
171 1 0.00978369 0.390224 0.5
132 1 0.973531 0.420579 0.5
382 1 0.133971 0.467281 0.5
353 1 0.272171 0.489532 0.5
243 1 0.325504 0.47682 0.5
199 1 0.375499 0.454003 0.5
224 1 0.431304 0.435191 0.5
71 1 0.51349 0.460681 0.5
211 1 0.514138 0.50838 0.5
192 1 0.60881 0.464972 0.5
92 1 0.619601 0.531504 0.5
204 1 0.888959 0.44871 0.5
45 1 0.880896 0.329336 0.5
90 1 0.0568664 0.399434 0.5
327 1 0.165361 0.515267 0.5
187 1 0.223449 0.502628 0.5
148 1 0.229324 0.447329 0.5
156 1 0.318868 0.522663 0.5
59 1 0.458932 0.473555 0.5
66 1 0.499094 0.561232 0.5
22 1 0.660698 0.478049 0.5
73 1 0.755369 0.40243 0.5
286 1 0.700343 0.442832 0.5
103 1 0.821989 0.400944 0.5
345 1 0.872604 0.395407 0.5
379 1 0.929093 0.421166 0.5
193 1 0.0416321 0.479842 0.5
348 1 0.114314 0.511663 0.5
334 1 0.140082 0.556343 0.5
50 1 0.210637 0.550942 0.5
178 1 0.308463 0.567572 0.5
206 1 0.308869 0.615647 0.5
53 1 0.413475 0.484741 0.5
233 1 0.462401 0.530397 0.5
359 1 0.571386 0.494778 0.5
39 1 0.622208 0.584567 0.5
228 1 0.650838 0.42901 0.5
9 1 0.795556 0.355773 0.5
357 1 0.889315 0.506995 0.5
40 1 0.937494 0.47724 0.5
354 1 0.00505481 0.522921 0.5
151 1 0.0910767 0.56382 0.5
207 1 0.186534 0.590493 0.5
99 1 0.269676 0.539494 0.5
128 1 0.357592 0.552006 0.5
164 1 0.412657 0.535757 0.5
318 1 0.449692 0.576507 0.5
312 1 0.542432 0.583374 0.5
44 1 0.571449 0.541049 0.5
119 1 0.709123 0.495539 0.5
231 1 0.746546 0.454076 0.5
124 1 0.841926 0.447259 0.5
131 1 0.987284 0.470566 0.5
203 1 0.248155 0.585387 0.5
270 1 0.22764 0.631168 0.5
86 1 0.277927 0.655816 0.5
278 1 0.355466 0.602526 0.5
6 1 0.372548 0.508688 0.5
249 1 0.427766 0.623294 0.5
68 1 0.490068 0.607698 0.5
258 1 0.789243 0.431981 0.5
63 1 0.800758 0.478192 0.5
137 1 0.868932 0.570474 0.5
335 1 0.931295 0.59693 0.5
239 1 0.957525 0.518445 0.5
24 1 0.0644613 0.522258 0.5
316 1 0.10608 0.652547 0.5
177 1 0.147904 0.684242 0.5
77 1 0.191032 0.662787 0.5
337 1 0.201477 0.756377 0.5
143 1 0.397073 0.578074 0.5
60 1 0.426399 0.670791 0.5
75 1 0.5791 0.609485 0.5
212 1 0.678561 0.588214 0.5
361 1 0.743802 0.596798 0.5
58 1 0.670115 0.527673 0.5
399 1 0.914898 0.550161 0.5
121 1 0.0387915 0.565662 0.5
397 1 0.121873 0.598294 0.5
138 1 0.0592981 0.652555 0.5
254 1 0.155668 0.633156 0.5
268 1 0.236737 0.682136 0.5
202 1 0.325573 0.674444 0.5
311 1 0.47619 0.658122 0.5
52 1 0.644719 0.625637 0.5
61 1 0.642609 0.676996 0.5
195 1 0.794899 0.599636 0.5
5 1 0.758146 0.505783 0.5
219 1 0.840934 0.502586 0.5
302 1 0.818318 0.559525 0.5
383 1 0.987396 0.677548 0.5
210 1 0.189542 0.708046 0.5
209 1 0.155701 0.788957 0.5
186 1 0.294439 0.71373 0.5
275 1 0.342071 0.720952 0.5
220 1 0.386496 0.694795 0.5
146 1 0.382339 0.639631 0.5
173 1 0.566575 0.693303 0.5
378 1 0.521567 0.683259 0.5
87 1 0.538967 0.637454 0.5
400 1 0.711058 0.63281 0.5
282 1 0.805214 0.650335 0.5
375 1 0.721688 0.547354 0.5
237 1 0.768946 0.551283 0.5
197 1 0.967017 0.56663 0.5
381 1 0.03815 0.694141 0.5
331 1 0.107951 0.709076 0.5
13 1 0.109056 0.767776 0.5
341 1 0.15394 0.740333 0.5
142 1 0.243038 0.788323 0.5
339 1 0.479221 0.707665 0.5
106 1 0.572973 0.742929 0.5
79 1 0.594281 0.654193 0.5
179 1 0.756926 0.639996 0.5
42 1 0.773269 0.686201 0.5
16 1 0.825682 0.692451 0.5
129 1 0.0719286 0.60936 0.5
365 1 0.019221 0.606473 0.5
277 1 0.0255502 0.818972 0.5
64 1 0.0692783 0.738679 0.5
38 1 0.251615 0.729137 0.5
181 1 0.427889 0.724932 0.5
134 1 0.510613 0.773584 0.5
266 1 0.612376 0.767842 0.5
330 1 0.630081 0.72332 0.5
172 1 0.723604 0.67804 0.5
283 1 0.846738 0.615416 0.5
170 1 0.971902 0.624788 0.5
96 1 0.993542 0.723296 0.5
125 1 0.0610416 0.785989 0.5
242 1 0.241208 0.842731 0.5
252 1 0.290607 0.827879 0.5
21 1 0.288073 0.771222 0.5
279 1 0.523786 0.729744 0.5
300 1 0.462605 0.755194 0.5
158 1 0.632736 0.824333 0.5
165 1 0.686581 0.707026 0.5
346 1 0.737829 0.722932 0.5
246 1 0.861918 0.738542 0.5
369 1 0.860444 0.660622 0.5
72 1 0.894193 0.62987 0.5
332 1 0.930691 0.79647 0.5
376 1 0.930958 0.659903 0.5
183 1 0.0202633 0.76269 0.5
163 1 0.973443 0.818776 0.5
371 1 0.0558229 0.862746 0.5
241 1 0.334339 0.881046 0.5
167 1 0.334663 0.775832 0.5
289 1 0.380435 0.748116 0.5
389 1 0.556806 0.787381 0.5
216 1 0.669892 0.753476 0.5
136 1 0.715355 0.766131 0.5
107 1 0.813443 0.740902 0.5
97 1 0.88423 0.787987 0.5
118 1 0.945307 0.708578 0.5
222 1 0.95998 0.758004 0.5
115 1 0.116837 0.813957 0.5
30 1 0.287673 0.876036 0.5
215 1 0.39646 0.922857 0.5
20 1 0.338314 0.824027 0.5
147 1 0.421201 0.784544 0.5
305 1 0.469675 0.806384 0.5
54 1 0.526075 0.825846 0.5
274 1 0.675908 0.862017 0.5
232 1 0.675694 0.808341 0.5
238 1 0.769154 0.759565 0.5
293 1 0.898962 0.696422 0.5
74 1 0.912048 0.743905 0.5
291 1 0.00124652 0.950465 0.5
295 1 0.97308 0.89879 0.5
205 1 0.198841 0.862939 0.5
235 1 0.362456 0.976307 0.5
329 1 0.386166 0.818545 0.5
36 1 0.427737 0.843641 0.5
31 1 0.483336 0.850627 0.5
94 1 0.574015 0.839551 0.5
256 1 0.615763 0.926153 0.5
70 1 0.740601 0.807667 0.5
51 1 0.832676 0.791047 0.5
260 1 0.925222 0.906913 0.5
221 1 0.950542 0.9511 0.5
196 1 0.00784418 0.86398 0.5
14 1 0.197719 0.806582 0.5
319 1 0.342699 0.932782 0.5
343 1 0.305985 0.979352 0.5
32 1 0.431114 0.892788 0.5
264 1 0.52449 0.888408 0.5
123 1 0.617256 0.871522 0.5
281 1 0.719198 0.894119 0.5
377 1 0.787126 0.809783 0.5
2 1 0.878584 0.884015 0.5
23 1 0.896425 0.835611 0.5
174 1 0.882981 0.933875 0.5
355 1 0.940071 0.861191 0.5
248 1 0.159163 0.899816 0.5
104 1 0.243178 0.891311 0.5
33 1 0.428164 0.962358 0.5
15 1 0.384377 0.865495 0.5
323 1 0.523028 0.940863 0.5
141 1 0.571733 0.885195 0.5
320 1 0.649141 0.970921 0.5
116 1 0.663272 0.92452 0.5
271 1 0.84737 0.841259 0.5
93 1 0.0286155 0.990073 0.5
247 1 0.159433 0.946951 0.5
95 1 0.113146 0.85872 0.5
144 1 0.0389911 0.912599 0.5
200 1 0.158579 0.840025 0.5
307 1 0.203296 0.914025 0.5
372 1 0.252771 0.998354 0.5
91 1 0.290947 0.0259736 0.5
153 1 0.404615 1.00212 0.5
110 1 0.475639 0.955619 0.5
386 1 0.505714 0.989846 0.5
317 1 0.556961 0.993198 0.5
227 1 0.747769 0.854732 0.5
155 1 0.882066 0.979841 0.5
175 1 0.929733 0.991425 0.5
234 1 0.0754084 -0.00016492 0.5
298 1 0.162516 0.00831438 0.5
273 1 0.0696267 0.953141 0.5
393 1 0.0862185 0.901733 0.5
358 1 0.283906 0.929885 0.5
303 1 0.229821 0.112366 0.5
83 1 0.338893 0.0187759 0.5
1 1 0.478495 0.89747 0.5
253 1 0.481521 0.0400595 0.5
322 1 0.567655 0.942045 0.5
11 1 0.64723 0.030248 0.5
288 1 0.796476 0.872662 0.5
25 1 0.907898 0.0329785 0.5
259 1 0.118564 0.975241 0.5
