ITEM: TIMESTEP
100000
ITEM: NUMBER OF ATOMS
400
ITEM: BOX BOUNDS pp pp pp
0.0000000000000000e+00 2.0000000000000000e+01
0.0000000000000000e+00 2.0000000000000000e+01
-5.0000000000000000e-01 5.0000000000000000e-01
ITEM: ATOMS id type xs ys zs
189 1 0.473773 0.223283 0.5
20 1 0.0718049 0.0523971 0.5
89 1 0.48917 0.284797 0.5
151 1 0.00751876 0.489941 0.5
311 1 0.285368 0.495504 0.5
383 1 0.476854 0.0781358 0.5
45 1 0.487233 0.383873 0.5
208 1 0.430611 0.0479287 0.5
274 1 0.108555 0.0192601 0.5
171 1 0.202095 0.0258623 0.5
10 1 0.251961 0.0589628 0.5
220 1 0.299754 0.0726398 0.5
102 1 0.341786 0.0500794 0.5
68 1 0.387115 0.0736108 0.5
197 1 0.480603 0.122654 0.5
289 1 0.0241407 0.0807305 0.5
357 1 0.0663975 0.101923 0.5
33 1 0.157724 0.0461412 0.5
35 1 0.204406 0.0750907 0.5
349 1 0.257436 0.110057 0.5
335 1 0.337713 0.106703 0.5
191 1 0.435625 0.0994458 0.5
257 1 0.118913 0.0750974 0.5
190 1 0.296355 0.137082 0.5
241 1 0.385733 0.123342 0.5
199 1 0.432017 0.147627 0.5
6 1 0.292325 0.0199541 0.5
306 1 0.0262046 0.137435 0.5
143 1 0.111279 0.126221 0.5
12 1 0.162222 0.112034 0.5
287 1 0.210773 0.126179 0.5
72 1 0.246666 0.163345 0.5
345 1 0.341066 0.154583 0.5
104 1 0.387873 0.177851 0.5
152 1 0.490831 0.333812 0.5
210 1 0.029237 0.0320881 0.5
320 1 0.0737239 0.160776 0.5
81 1 0.165355 0.160574 0.5
382 1 0.24875 0.212013 0.5
112 1 0.298662 0.185306 0.5
255 1 0.344869 0.208078 0.5
240 1 0.433269 0.195124 0.5
64 1 0.0240739 0.18924 0.5
369 1 0.112766 0.190854 0.5
101 1 0.16794 0.222312 0.5
184 1 0.206481 0.191793 0.5
67 1 0.291579 0.234757 0.5
232 1 0.391455 0.23018 0.5
379 1 0.358076 0.463305 0.5
97 1 0.0751537 0.222345 0.5
41 1 0.118996 0.25127 0.5
52 1 0.208239 0.252109 0.5
297 1 0.347349 0.261117 0.5
353 1 0.43942 0.25646 0.5
119 1 0.393714 0.0147969 0.5
244 1 0.0272001 0.241014 0.5
114 1 0.0808999 0.279048 0.5
393 1 0.16297 0.277529 0.5
26 1 0.253467 0.267117 0.5
331 1 0.297244 0.282016 0.5
48 1 0.357965 0.314061 0.5
263 1 0.398311 0.28462 0.5
275 1 0.439163 0.309961 0.5
55 1 0.0344653 0.304485 0.5
267 1 0.122338 0.308004 0.5
372 1 0.170172 0.328555 0.5
330 1 0.217921 0.304412 0.5
298 1 0.26313 0.32843 0.5
380 1 0.310296 0.331892 0.5
134 1 0.398622 0.335937 0.5
106 1 0.433877 0.49026 0.5
315 1 0.0784837 0.329796 0.5
314 1 0.129522 0.358445 0.5
185 1 0.218052 0.352114 0.5
264 1 0.357796 0.364044 0.5
242 1 0.442896 0.359801 0.5
111 1 0.0408307 0.359714 0.5
237 1 0.176287 0.383541 0.5
47 1 0.264044 0.381927 0.5
334 1 0.313405 0.387645 0.5
373 1 0.406821 0.391657 0.5
50 1 0.084953 0.384445 0.5
187 1 0.136146 0.414137 0.5
85 1 0.219949 0.404207 0.5
277 1 0.262896 0.434592 0.5
165 1 0.361457 0.413687 0.5
360 1 0.471877 0.458839 0.5
98 1 0.245638 0.0052546 0.5
22 1 0.0419391 0.409544 0.5
18 1 0.0973042 0.444446 0.5
3 1 0.17969 0.44163 0.5
211 1 0.22399 0.473762 0.5
358 1 0.312627 0.445974 0.5
288 1 0.425842 0.434253 0.5
157 1 0.0491468 0.460109 0.5
42 1 0.139722 0.478586 0.5
247 1 0.47603 0.171766 0.5
124 1 0.0931657 0.499829 0.5
394 1 0.48306 0.0264328 0.5
364 1 0.158057 0.997156 0.5
75 1 0.0428529 0.523053 0.5
215 1 0.3356 0.504482 0.5
342 1 0.300339 0.967732 0.5
150 1 0.0398116 0.744021 0.5
294 1 0.204684 0.969275 0.5
125 1 0.390863 0.52313 0.5
284 1 0.116722 0.969942 0.5
65 1 0.4848 0.556861 0.5
146 1 0.0669249 0.631486 0.5
127 1 0.0884186 0.547557 0.5
129 1 0.192063 0.562725 0.5
95 1 0.28336 0.548757 0.5
317 1 0.381606 0.571498 0.5
226 1 0.440257 0.539296 0.5
92 1 0.0548805 0.582503 0.5
304 1 0.142879 0.575234 0.5
399 1 0.239154 0.56926 0.5
316 1 0.331379 0.555855 0.5
149 1 0.427209 0.588792 0.5
56 1 0.346049 0.875224 0.5
268 1 0.0751699 0.780652 0.5
224 1 0.105698 0.607935 0.5
302 1 0.126344 0.65572 0.5
355 1 0.167056 0.618032 0.5
167 1 0.285788 0.596344 0.5
91 1 0.380451 0.627231 0.5
260 1 0.477791 0.6067 0.5
354 1 0.0630046 0.936234 0.5
350 1 0.0366808 0.670293 0.5
88 1 0.0845693 0.683969 0.5
251 1 0.254901 0.636656 0.5
209 1 0.337609 0.605381 0.5
78 1 0.398072 0.672579 0.5
66 1 0.436197 0.63938 0.5
34 1 0.418507 0.95424 0.5
227 1 0.0841282 0.732892 0.5
84 1 0.207984 0.648797 0.5
212 1 0.253283 0.684559 0.5
388 1 0.304102 0.640031 0.5
183 1 0.346826 0.664943 0.5
198 1 0.453035 0.686168 0.5
61 1 0.367363 0.952176 0.5
179 1 0.127483 0.755249 0.5
176 1 0.175814 0.684263 0.5
329 1 0.220561 0.721186 0.5
256 1 0.304676 0.689445 0.5
51 1 0.428628 0.728346 0.5
116 1 0.476925 0.729767 0.5
135 1 0.131842 0.705597 0.5
121 1 0.171345 0.735208 0.5
207 1 0.273738 0.729221 0.5
110 1 0.321612 0.737321 0.5
196 1 0.450641 0.789918 0.5
387 1 0.026267 0.965512 0.5
128 1 0.0726452 0.830537 0.5
159 1 0.235551 0.77145 0.5
30 1 0.354803 0.773276 0.5
398 1 0.380887 0.814912 0.5
250 1 0.372919 0.726802 0.5
133 1 0.241888 0.520571 0.5
109 1 0.159201 0.946422 0.5
178 1 0.124528 0.804896 0.5
40 1 0.186737 0.781053 0.5
11 1 0.308008 0.783792 0.5
82 1 0.330284 0.826179 0.5
2 1 0.435463 0.840574 0.5
168 1 0.0688594 0.88486 0.5
96 1 0.114343 0.859878 0.5
113 1 0.221287 0.816395 0.5
174 1 0.278089 0.824418 0.5
307 1 0.327402 0.921058 0.5
31 1 0.40054 0.769837 0.5
5 1 0.39632 0.912048 0.5
231 1 0.269602 0.913203 0.5
391 1 0.133938 0.527 0.5
290 1 0.0260777 0.843409 0.5
377 1 0.163992 0.835315 0.5
62 1 0.199814 0.870489 0.5
195 1 0.390754 0.862206 0.5
70 1 0.29808 0.870442 0.5
182 1 0.467547 0.954337 0.5
43 1 0.153355 0.897091 0.5
192 1 0.250446 0.868853 0.5
332 1 0.452161 0.895513 0.5
29 1 0.0269131 0.793564 0.5
341 1 0.442404 1.00018 0.5
131 1 0.021581 0.905216 0.5
282 1 0.112048 0.922503 0.5
90 1 0.218836 0.923718 0.5
186 1 0.254077 0.957865 0.5
269 1 0.0050682 0.561141 0.5
204 1 0.0214475 0.615056 0.5
254 1 0.34524 0.998941 0.5
160 1 0.0642078 0.996342 0.5
233 1 0.488547 0.655228 0.5
322 1 0.478415 0.507567 0.5
126 1 0.487443 0.824251 0.5
374 1 0.180306 0.5081 0.5
108 1 0.00449718 0.707207 0.5
339 1 0.528526 0.0399702 0.5
281 1 0.608883 0.0327648 0.5
327 1 0.697706 0.0298272 0.5
234 1 0.867099 0.480924 0.5
71 1 0.613155 0.482755 0.5
86 1 0.566802 0.0714319 0.5
397 1 0.653033 0.0579093 0.5
313 1 0.746607 0.0491773 0.5
300 1 0.797804 0.0300142 0.5
93 1 0.892397 0.00533499 0.5
280 1 0.934413 0.0330413 0.5
235 1 0.979624 0.0488471 0.5
310 1 0.524666 0.101433 0.5
219 1 0.578667 0.123107 0.5
148 1 0.612251 0.0891479 0.5
136 1 0.663179 0.115337 0.5
266 1 0.700884 0.0872133 0.5
384 1 0.750687 0.108647 0.5
193 1 0.844031 0.0504476 0.5
319 1 0.528887 0.152475 0.5
162 1 0.62405 0.144121 0.5
16 1 0.706899 0.137837 0.5
1 1 0.794655 0.0859362 0.5
361 1 0.893434 0.059895 0.5
370 1 0.938979 0.0839681 0.5
38 1 0.982554 0.113229 0.5
37 1 0.576601 0.171752 0.5
368 1 0.664075 0.168362 0.5
321 1 0.750658 0.162107 0.5
83 1 0.843959 0.101256 0.5
312 1 0.897098 0.109191 0.5
205 1 0.939363 0.138789 0.5
120 1 0.520957 0.201747 0.5
69 1 0.619738 0.195628 0.5
243 1 0.707358 0.185997 0.5
200 1 0.758261 0.209027 0.5
375 1 0.808867 0.140706 0.5
378 1 0.855695 0.148779 0.5
343 1 0.528138 0.250858 0.5
392 1 0.580625 0.22815 0.5
253 1 0.668684 0.217824 0.5
299 1 0.718137 0.239622 0.5
44 1 0.805 0.197707 0.5
28 1 0.896757 0.176894 0.5
155 1 0.936525 0.204698 0.5
323 1 0.893272 0.23309 0.5
99 1 0.584637 0.276448 0.5
107 1 0.629346 0.245644 0.5
105 1 0.807885 0.281813 0.5
324 1 0.851871 0.201573 0.5
4 1 0.847231 0.254434 0.5
262 1 0.946321 0.255212 0.5
194 1 0.909961 0.449065 0.5
145 1 0.995615 0.334963 0.5
286 1 0.536611 0.302983 0.5
293 1 0.625212 0.303692 0.5
365 1 0.677119 0.269281 0.5
27 1 0.717057 0.298814 0.5
54 1 0.764673 0.257698 0.5
175 1 0.959594 0.475868 0.5
156 1 0.58312 0.329777 0.5
36 1 0.672925 0.318648 0.5
270 1 0.764226 0.315071 0.5
283 1 0.852286 0.301334 0.5
346 1 0.90092 0.282177 0.5
172 1 0.946285 0.302419 0.5
261 1 0.55244 0.368086 0.5
223 1 0.637028 0.352834 0.5
309 1 0.729187 0.349119 0.5
230 1 0.810533 0.332795 0.5
139 1 0.899236 0.334107 0.5
400 1 0.564546 0.0103144 0.5
337 1 0.598277 0.386081 0.5
359 1 0.682517 0.374459 0.5
19 1 0.77992 0.368937 0.5
326 1 0.860578 0.363052 0.5
213 1 0.951727 0.350777 0.5
87 1 0.55676 0.416786 0.5
236 1 0.60552 0.436416 0.5
122 1 0.644333 0.401443 0.5
137 1 0.693906 0.421031 0.5
217 1 0.736583 0.402444 0.5
371 1 0.782666 0.422099 0.5
344 1 0.823569 0.394433 0.5
386 1 0.864219 0.42661 0.5
222 1 0.898839 0.393637 0.5
147 1 0.99065 0.273493 0.5
390 1 0.78221 0.488412 0.5
144 1 0.567171 0.465006 0.5
14 1 0.651052 0.449984 0.5
363 1 0.739508 0.451095 0.5
25 1 0.824128 0.458861 0.5
221 1 0.946675 0.411419 0.5
201 1 0.981405 0.220279 0.5
291 1 0.975029 0.172168 0.5
356 1 0.520342 0.476328 0.5
258 1 0.694516 0.468814 0.5
285 1 0.510811 0.42878 0.5
246 1 0.996848 0.437997 0.5
76 1 0.913857 0.498631 0.5
303 1 0.989701 0.385846 0.5
376 1 0.984767 0.00131844 0.5
228 1 0.57144 0.511767 0.5
46 1 0.51944 0.987972 0.5
396 1 0.735187 0.516493 0.5
23 1 0.836692 1.00012 0.5
188 1 0.82266 0.571459 0.5
77 1 0.642263 0.995208 0.5
164 1 0.97523 0.936734 0.5
276 1 0.617808 0.53359 0.5
161 1 0.631349 0.580818 0.5
153 1 0.685841 0.556887 0.5
17 1 0.779941 0.544298 0.5
203 1 0.835265 0.622959 0.5
381 1 0.881957 0.910579 0.5
348 1 0.967823 0.523045 0.5
158 1 0.566248 0.559937 0.5
271 1 0.581452 0.60611 0.5
117 1 0.737543 0.574564 0.5
245 1 0.785332 0.602192 0.5
229 1 0.882724 0.636558 0.5
395 1 0.875988 0.586129 0.5
170 1 0.54654 0.642345 0.5
103 1 0.60576 0.666188 0.5
163 1 0.698864 0.603736 0.5
115 1 0.797351 0.6554 0.5
202 1 0.921145 0.603664 0.5
9 1 0.917236 0.546597 0.5
305 1 0.868198 0.534442 0.5
273 1 0.561357 0.693524 0.5
338 1 0.643385 0.627781 0.5
15 1 0.739688 0.627026 0.5
366 1 0.844778 0.677353 0.5
140 1 0.897306 0.706811 0.5
57 1 0.939587 0.980973 0.5
216 1 0.820654 0.519132 0.5
259 1 0.603747 0.719868 0.5
218 1 0.695992 0.651965 0.5
249 1 0.743198 0.672788 0.5
118 1 0.79536 0.705038 0.5
292 1 0.840949 0.729427 0.5
79 1 0.958701 0.571017 0.5
295 1 0.547448 0.741832 0.5
351 1 0.655793 0.677661 0.5
347 1 0.697833 0.706899 0.5
74 1 0.790012 0.754119 0.5
352 1 0.938923 0.774857 0.5
59 1 0.920014 0.663054 0.5
132 1 0.969314 0.621343 0.5
206 1 0.661055 0.501224 0.5
130 1 0.976788 0.87543 0.5
301 1 0.599681 0.773058 0.5
58 1 0.656393 0.736988 0.5
73 1 0.742651 0.73042 0.5
100 1 0.843994 0.778221 0.5
265 1 0.949325 0.724315 0.5
248 1 0.553573 0.790948 0.5
296 1 0.65069 0.787911 0.5
279 1 0.701904 0.760491 0.5
13 1 0.74789 0.780841 0.5
325 1 0.797992 0.809786 0.5
32 1 0.892179 0.756528 0.5
238 1 0.982896 0.758679 0.5
214 1 0.927598 0.829329 0.5
389 1 0.505734 0.768644 0.5
166 1 0.59278 0.820345 0.5
181 1 0.68887 0.819246 0.5
362 1 0.750339 0.845192 0.5
39 1 0.838867 0.832509 0.5
21 1 0.522325 0.586208 0.5
123 1 0.59363 0.874311 0.5
60 1 0.642519 0.841295 0.5
252 1 0.683762 0.872949 0.5
225 1 0.796213 0.862274 0.5
173 1 0.885721 0.805691 0.5
24 1 0.885402 0.852976 0.5
49 1 0.693617 0.978207 0.5
63 1 0.54827 0.841772 0.5
239 1 0.639995 0.892892 0.5
142 1 0.732009 0.894214 0.5
180 1 0.831507 0.936949 0.5
318 1 0.839471 0.883797 0.5
336 1 0.925162 0.878232 0.5
328 1 0.545605 0.890936 0.5
340 1 0.599357 0.921732 0.5
7 1 0.692339 0.926673 0.5
177 1 0.782471 0.90918 0.5
308 1 0.874541 0.960109 0.5
333 1 0.926645 0.92989 0.5
272 1 0.513256 0.698048 0.5
367 1 0.55711 0.940589 0.5
138 1 0.597395 0.974798 0.5
53 1 0.644289 0.944933 0.5
8 1 0.742197 0.939856 0.5
141 1 0.786191 0.967685 0.5
154 1 0.984129 0.81163 0.5
94 1 0.509739 0.925446 0.5
80 1 0.525335 0.530575 0.5
169 1 0.743876 0.997297 0.5
278 1 0.96871 0.671643 0.5
385 1 0.501938 0.871995 0.5
