ITEM: TIMESTEP
100000
ITEM: NUMBER OF ATOMS
400
ITEM: BOX BOUNDS pp pp pp
0.0000000000000000e+00 1.9518001458970666e+01
0.0000000000000000e+00 1.9518001458970666e+01
-4.8795003647426660e-01 4.8795003647426660e-01
ITEM: ATOMS id type xs ys zs
21 1 0.00536616 0.027872 0.5
383 1 0.0586368 0.030815 0.5
65 1 0.293462 0.00736363 0.5
8 1 0.344102 0.0166586 0.5
291 1 0.399717 0.0166279 0.5
390 1 0.449002 0.0319127 0.5
60 1 0.554665 0.0322612 0.5
15 1 0.735736 0.00766456 0.5
354 1 0.790345 0.00759715 0.5
399 1 0.840115 0.011199 0.5
363 1 0.886722 0.0216933 0.5
323 1 0.956474 0.026984 0.5
145 1 0.116505 0.037676 0.5
64 1 0.166709 0.0344386 0.5
387 1 0.214055 0.045848 0.5
388 1 0.266648 0.049359 0.5
4 1 0.319658 0.0586716 0.5
28 1 0.372494 0.0661966 0.5
90 1 0.499553 0.0356353 0.5
120 1 0.605493 0.0356308 0.5
40 1 0.654094 0.0339138 0.5
103 1 0.703387 0.0523453 0.5
140 1 0.755596 0.0567749 0.5
42 1 0.813176 0.0575569 0.5
23 1 0.861559 0.0662463 0.5
121 1 0.916719 0.0654825 0.5
5 1 0.0328979 0.072887 0.5
162 1 0.0804523 0.0864601 0.5
43 1 0.132884 0.0935296 0.5
47 1 0.182194 0.086841 0.5
164 1 0.237415 0.0925296 0.5
369 1 0.287866 0.0983772 0.5
386 1 0.423064 0.0741729 0.5
29 1 0.475304 0.0782239 0.5
350 1 0.525722 0.0806452 0.5
329 1 0.582505 0.0840284 0.5
80 1 0.632464 0.079966 0.5
32 1 0.676809 0.0997449 0.5
2 1 0.728604 0.0972724 0.5
104 1 0.978897 0.0748141 0.5
24 1 0.0500077 0.13058 0.5
119 1 0.100299 0.133082 0.5
309 1 0.34755 0.108957 0.5
370 1 0.399292 0.117277 0.5
328 1 0.448269 0.118661 0.5
11 1 0.501078 0.125874 0.5
10 1 0.55168 0.122667 0.5
173 1 0.600017 0.128132 0.5
3 1 0.783249 0.106615 0.5
96 1 0.829488 0.107681 0.5
39 1 0.885677 0.109052 0.5
46 1 0.938327 0.113633 0.5
400 1 0.990303 0.124151 0.5
86 1 0.154252 0.138931 0.5
203 1 0.215713 0.133948 0.5
126 1 0.262868 0.150173 0.5
66 1 0.311364 0.145583 0.5
44 1 0.363161 0.157438 0.5
102 1 0.647393 0.137452 0.5
56 1 0.699561 0.148036 0.5
136 1 0.751365 0.146393 0.5
122 1 0.807362 0.151968 0.5
81 1 0.856734 0.157155 0.5
276 1 0.910527 0.156562 0.5
77 1 0.959144 0.162314 0.5
159 1 0.0135917 0.17319 0.5
137 1 0.0684489 0.178734 0.5
185 1 0.118604 0.183143 0.5
25 1 0.181731 0.180382 0.5
166 1 0.234943 0.190797 0.5
264 1 0.298396 0.191607 0.5
51 1 0.409921 0.168148 0.5
7 1 0.459007 0.171012 0.5
70 1 0.508834 0.17737 0.5
52 1 0.560132 0.170855 0.5
31 1 0.609323 0.179055 0.5
116 1 0.667352 0.188411 0.5
54 1 0.721117 0.191854 0.5
138 1 0.0347442 0.217702 0.5
141 1 0.0907797 0.225059 0.5
87 1 0.149769 0.228571 0.5
93 1 0.329523 0.2291 0.5
89 1 0.375969 0.207816 0.5
106 1 0.428786 0.223446 0.5
128 1 0.478295 0.222546 0.5
92 1 0.533819 0.218077 0.5
94 1 0.582003 0.227366 0.5
135 1 0.775208 0.201076 0.5
100 1 0.823656 0.201793 0.5
75 1 0.87316 0.20657 0.5
183 1 0.923916 0.20922 0.5
85 1 0.980118 0.209536 0.5
198 1 0.00769903 0.26248 0.5
163 1 0.0600298 0.262331 0.5
144 1 0.196925 0.244294 0.5
389 1 0.248118 0.249689 0.5
71 1 0.37601 0.257236 0.5
72 1 0.50624 0.26063 0.5
74 1 0.638064 0.234592 0.5
22 1 0.687437 0.24169 0.5
78 1 0.743073 0.238741 0.5
55 1 0.801595 0.248386 0.5
156 1 0.851049 0.250103 0.5
381 1 0.902621 0.254874 0.5
63 1 0.95945 0.261792 0.5
300 1 0.110109 0.267909 0.5
184 1 0.164043 0.280311 0.5
84 1 0.221664 0.292973 0.5
127 1 0.283203 0.289402 0.5
83 1 0.33249 0.285289 0.5
348 1 0.457019 0.269085 0.5
132 1 0.554404 0.267941 0.5
151 1 0.602914 0.273326 0.5
171 1 0.6577 0.282708 0.5
98 1 0.714993 0.282414 0.5
73 1 0.766127 0.282173 0.5
139 1 0.814107 0.295871 0.5
181 1 0.882425 0.298613 0.5
101 1 0.033191 0.310739 0.5
165 1 0.0833298 0.310743 0.5
125 1 0.133592 0.318065 0.5
212 1 0.184783 0.327283 0.5
262 1 0.24894 0.332631 0.5
206 1 0.372925 0.310301 0.5
27 1 0.428979 0.31319 0.5
76 1 0.47894 0.31824 0.5
48 1 0.531787 0.316587 0.5
134 1 0.584531 0.318968 0.5
188 1 0.638514 0.331483 0.5
168 1 0.690752 0.332333 0.5
180 1 0.931718 0.311605 0.5
301 1 0.982171 0.304792 0.5
105 1 0.0466006 0.359753 0.5
117 1 0.103057 0.366612 0.5
271 1 0.296606 0.349602 0.5
261 1 0.350284 0.352359 0.5
9 1 0.400894 0.356779 0.5
148 1 0.453984 0.36444 0.5
211 1 0.55231 0.360118 0.5
218 1 0.742068 0.335412 0.5
238 1 0.79264 0.340152 0.5
177 1 0.847195 0.334264 0.5
99 1 0.894313 0.358963 0.5
113 1 0.943671 0.360871 0.5
182 1 0.992003 0.361826 0.5
187 1 0.155529 0.377607 0.5
205 1 0.22542 0.37782 0.5
67 1 0.273192 0.39281 0.5
69 1 0.327773 0.397681 0.5
130 1 0.376062 0.399867 0.5
68 1 0.502785 0.369719 0.5
191 1 0.600649 0.367167 0.5
172 1 0.661177 0.37812 0.5
154 1 0.712134 0.382358 0.5
115 1 0.762133 0.385866 0.5
278 1 0.810827 0.387906 0.5
124 1 0.022987 0.40766 0.5
207 1 0.0789557 0.418154 0.5
178 1 0.127926 0.418949 0.5
107 1 0.177359 0.430558 0.5
147 1 0.233697 0.431148 0.5
189 1 0.426132 0.414995 0.5
235 1 0.47624 0.410636 0.5
248 1 0.53433 0.41026 0.5
234 1 0.582806 0.415821 0.5
114 1 0.634151 0.419617 0.5
192 1 0.685466 0.424657 0.5
239 1 0.865095 0.400353 0.5
220 1 0.92005 0.403295 0.5
201 1 0.97196 0.410147 0.5
202 1 0.0498196 0.46015 0.5
222 1 0.101683 0.465328 0.5
108 1 0.291964 0.438418 0.5
91 1 0.343152 0.450417 0.5
88 1 0.394039 0.461068 0.5
374 1 0.492924 0.458901 0.5
112 1 0.547756 0.458441 0.5
111 1 0.601673 0.459307 0.5
221 1 0.737326 0.433481 0.5
196 1 0.785517 0.436702 0.5
143 1 0.836716 0.442568 0.5
335 1 0.891078 0.446494 0.5
123 1 0.941315 0.448866 0.5
226 1 0.997301 0.455473 0.5
242 1 0.152646 0.474099 0.5
131 1 0.210341 0.476815 0.5
251 1 0.25967 0.486531 0.5
186 1 0.311009 0.488744 0.5
129 1 0.362349 0.497553 0.5
150 1 0.444518 0.467352 0.5
152 1 0.652696 0.468072 0.5
277 1 0.703112 0.469977 0.5
236 1 0.756685 0.477634 0.5
217 1 0.807496 0.493325 0.5
153 1 0.860889 0.494109 0.5
79 1 0.913708 0.491212 0.5
161 1 0.0181397 0.502004 0.5
158 1 0.0742781 0.50994 0.5
118 1 0.123194 0.514301 0.5
160 1 0.175178 0.518725 0.5
228 1 0.229266 0.527228 0.5
109 1 0.413564 0.513248 0.5
227 1 0.469267 0.513543 0.5
170 1 0.523002 0.508232 0.5
176 1 0.573308 0.506072 0.5
315 1 0.623728 0.5123 0.5
298 1 0.672887 0.518107 0.5
155 1 0.720951 0.517481 0.5
299 1 0.960923 0.506361 0.5
285 1 0.0327091 0.55316 0.5
195 1 0.0989657 0.554643 0.5
317 1 0.14846 0.565933 0.5
272 1 0.278851 0.533851 0.5
250 1 0.330743 0.539947 0.5
219 1 0.383106 0.552513 0.5
290 1 0.440563 0.557927 0.5
245 1 0.500347 0.55444 0.5
232 1 0.550349 0.551304 0.5
267 1 0.598689 0.562338 0.5
216 1 0.775171 0.534538 0.5
314 1 0.825637 0.53855 0.5
179 1 0.880466 0.542685 0.5
358 1 0.933161 0.549734 0.5
157 1 0.983706 0.551024 0.5
200 1 0.0610348 0.594418 0.5
260 1 0.200264 0.568808 0.5
175 1 0.249452 0.577654 0.5
279 1 0.305714 0.586512 0.5
377 1 0.355516 0.598712 0.5
174 1 0.410824 0.598045 0.5
169 1 0.651237 0.570173 0.5
213 1 0.701915 0.56828 0.5
294 1 0.753047 0.57953 0.5
256 1 0.802349 0.581985 0.5
334 1 0.854684 0.583995 0.5
281 1 0.904658 0.589462 0.5
359 1 0.961859 0.591769 0.5
208 1 0.0108332 0.601867 0.5
307 1 0.110692 0.607309 0.5
146 1 0.162469 0.612639 0.5
167 1 0.217237 0.615873 0.5
233 1 0.266276 0.627566 0.5
194 1 0.462608 0.604121 0.5
215 1 0.514749 0.601766 0.5
133 1 0.561756 0.60078 0.5
210 1 0.619819 0.612219 0.5
373 1 0.673128 0.615964 0.5
193 1 0.722105 0.615086 0.5
351 1 0.773888 0.622354 0.5
311 1 0.827639 0.625999 0.5
197 1 0.877406 0.632186 0.5
199 1 0.93388 0.631575 0.5
263 1 0.033083 0.645015 0.5
320 1 0.0850934 0.65055 0.5
259 1 0.134036 0.656395 0.5
209 1 0.183611 0.665596 0.5
149 1 0.32516 0.63834 0.5
252 1 0.376521 0.643992 0.5
268 1 0.43554 0.64839 0.5
393 1 0.486091 0.650434 0.5
237 1 0.539287 0.648711 0.5
313 1 0.588706 0.652449 0.5
371 1 0.643282 0.656609 0.5
18 1 0.698569 0.660455 0.5
305 1 0.980889 0.640519 0.5
284 1 0.00288546 0.695383 0.5
243 1 0.0527645 0.688369 0.5
333 1 0.108626 0.69806 0.5
225 1 0.236633 0.668397 0.5
322 1 0.286919 0.670838 0.5
229 1 0.347242 0.684203 0.5
230 1 0.399801 0.687505 0.5
231 1 0.452762 0.697506 0.5
312 1 0.512926 0.692325 0.5
330 1 0.561886 0.696415 0.5
375 1 0.746444 0.668786 0.5
352 1 0.795451 0.6761 0.5
316 1 0.848463 0.673813 0.5
240 1 0.899291 0.690286 0.5
223 1 0.952952 0.679846 0.5
257 1 0.16334 0.7094 0.5
244 1 0.210229 0.722064 0.5
266 1 0.265071 0.717448 0.5
346 1 0.320019 0.724882 0.5
331 1 0.613039 0.709659 0.5
332 1 0.662143 0.701901 0.5
292 1 0.717458 0.712372 0.5
353 1 0.7681 0.718136 0.5
293 1 0.820599 0.720223 0.5
321 1 0.869039 0.728703 0.5
338 1 0.923113 0.73304 0.5
303 1 0.0241666 0.746452 0.5
265 1 0.0761794 0.737862 0.5
241 1 0.12799 0.748588 0.5
249 1 0.175377 0.760951 0.5
269 1 0.236947 0.763609 0.5
204 1 0.29197 0.766018 0.5
361 1 0.371203 0.733866 0.5
275 1 0.424045 0.748473 0.5
33 1 0.475991 0.739216 0.5
391 1 0.527697 0.748504 0.5
30 1 0.582768 0.752752 0.5
14 1 0.628789 0.764347 0.5
255 1 0.679828 0.762388 0.5
53 1 0.736353 0.757669 0.5
295 1 0.786528 0.764096 0.5
319 1 0.972945 0.742506 0.5
324 1 0.0466365 0.791176 0.5
247 1 0.0982387 0.790724 0.5
287 1 0.3397 0.777483 0.5
246 1 0.38852 0.783275 0.5
286 1 0.446374 0.790761 0.5
16 1 0.496079 0.78837 0.5
57 1 0.551592 0.79587 0.5
280 1 0.841027 0.770547 0.5
336 1 0.890944 0.790035 0.5
258 1 0.940599 0.779861 0.5
282 1 0.997569 0.788465 0.5
283 1 0.151649 0.813062 0.5
254 1 0.203453 0.806616 0.5
253 1 0.252418 0.817927 0.5
224 1 0.309232 0.816934 0.5
273 1 0.359861 0.824968 0.5
349 1 0.413364 0.831433 0.5
392 1 0.600392 0.805513 0.5
41 1 0.651738 0.811931 0.5
38 1 0.711186 0.804975 0.5
355 1 0.761238 0.811234 0.5
297 1 0.810203 0.813494 0.5
20 1 0.858319 0.83292 0.5
379 1 0.0229876 0.838433 0.5
340 1 0.0740318 0.838952 0.5
327 1 0.122276 0.856261 0.5
360 1 0.171369 0.858482 0.5
362 1 0.219738 0.855712 0.5
344 1 0.280938 0.859944 0.5
325 1 0.332218 0.865918 0.5
270 1 0.46501 0.837317 0.5
310 1 0.523096 0.83814 0.5
345 1 0.57413 0.848695 0.5
58 1 0.622884 0.855423 0.5
61 1 0.674722 0.857648 0.5
34 1 0.723903 0.853085 0.5
395 1 0.777744 0.866149 0.5
318 1 0.91034 0.836653 0.5
376 1 0.970071 0.834003 0.5
19 1 0.0413872 0.891203 0.5
380 1 0.0918434 0.898551 0.5
372 1 0.378344 0.87519 0.5
190 1 0.432535 0.879653 0.5
12 1 0.486749 0.886271 0.5
49 1 0.540365 0.886153 0.5
35 1 0.587598 0.898328 0.5
214 1 0.638043 0.899577 0.5
356 1 0.825346 0.870604 0.5
302 1 0.887892 0.884404 0.5
337 1 0.936216 0.88938 0.5
296 1 0.985302 0.885817 0.5
306 1 0.149644 0.901146 0.5
6 1 0.198631 0.900576 0.5
347 1 0.252133 0.900281 0.5
308 1 0.305548 0.910749 0.5
274 1 0.35474 0.927018 0.5
13 1 0.404593 0.924105 0.5
396 1 0.692758 0.902554 0.5
378 1 0.742602 0.901159 0.5
341 1 0.794354 0.914456 0.5
357 1 0.854781 0.921799 0.5
398 1 0.00914143 0.934886 0.5
304 1 0.0588186 0.943201 0.5
367 1 0.121476 0.942934 0.5
366 1 0.172923 0.952669 0.5
26 1 0.22326 0.943012 0.5
385 1 0.278417 0.955857 0.5
364 1 0.456038 0.934941 0.5
36 1 0.505986 0.94019 0.5
17 1 0.554347 0.937281 0.5
95 1 0.616284 0.944886 0.5
397 1 0.665472 0.94651 0.5
59 1 0.718373 0.948369 0.5
339 1 0.768004 0.96156 0.5
394 1 0.816525 0.965524 0.5
62 1 0.907871 0.934326 0.5
37 1 0.95727 0.937493 0.5
326 1 0.0327297 0.984448 0.5
342 1 0.0839034 0.985377 0.5
142 1 0.136301 0.992003 0.5
82 1 0.197056 0.996453 0.5
365 1 0.246568 0.995334 0.5
343 1 0.328141 0.96974 0.5
288 1 0.377148 0.973863 0.5
289 1 0.43138 0.977601 0.5
368 1 0.481203 0.984333 0.5
110 1 0.530261 0.985076 0.5
50 1 0.582748 0.981713 0.5
97 1 0.635039 0.987838 0.5
382 1 0.685964 0.98919 0.5
1 1 0.869478 0.96965 0.5
45 1 0.925221 0.982543 0.5
384 1 0.983572 0.980805 0.5
