ITEM: TIMESTEP
100000
ITEM: NUMBER OF ATOMS
400
ITEM: BOX BOUNDS pp pp pp
0.0000000000000000e+00 2.3904572186687872e+01
0.0000000000000000e+00 2.3904572186687872e+01
-5.9761430466719678e-01 5.9761430466719678e-01
ITEM: ATOMS id type xs ys zs
342 1 0.0507237 0.450928 0.5
288 1 0.420013 0.0263046 0.5
32 1 0.280522 0.471573 0.5
158 1 0.284667 0.377413 0.5
153 1 0.386799 0.365534 0.5
329 1 0.361181 0.0503441 0.5
64 1 0.0846074 0.0071436 0.5
90 1 0.0385972 0.498581 0.5
240 1 0.0844126 0.36558 0.5
268 1 0.176068 0.378373 0.5
29 1 0.346331 0.0954174 0.5
67 1 0.0359114 0.373456 0.5
230 1 0.299006 0.0619474 0.5
262 1 0.24185 0.197123 0.5
107 1 0.368736 0.405326 0.5
145 1 0.241871 0.383982 0.5
276 1 0.105729 0.0553171 0.5
105 1 0.471769 0.45471 0.5
125 1 0.0440789 0.0192192 0.5
26 1 0.246321 0.244194 0.5
150 1 0.259542 0.429948 0.5
196 1 0.0513723 0.317266 0.5
128 1 0.0532368 0.224253 0.5
123 1 0.230141 0.0159413 0.5
132 1 0.296124 0.14833 0.5
152 1 0.354921 0.227405 0.5
44 1 0.485383 0.17672 0.5
102 1 0.0115933 0.302698 0.5
237 1 0.201373 0.0741411 0.5
200 1 0.461449 0.279874 0.5
57 1 0.251011 0.152798 0.5
40 1 0.325697 0.0279346 0.5
331 1 0.058682 0.272872 0.5
395 1 0.0241721 0.071375 0.5
337 1 0.108923 0.144539 0.5
261 1 0.280448 0.193959 0.5
251 1 0.39665 0.145453 0.5
217 1 0.399421 0.484227 0.5
78 1 0.0341936 0.122942 0.5
253 1 0.0867182 0.0938017 0.5
46 1 0.237216 0.099207 0.5
91 1 0.36932 0.32521 0.5
169 1 0.396014 0.0900016 0.5
238 1 0.338966 0.1354 0.5
338 1 0.3403 0.286971 0.5
170 1 0.140523 0.285678 0.5
281 1 0.297138 0.274265 0.5
277 1 0.377495 0.266826 0.5
386 1 0.0132484 0.160912 0.5
244 1 0.189709 0.182206 0.5
272 1 0.160463 0.074184 0.5
301 1 0.171785 0.112994 0.5
142 1 0.210667 0.128859 0.5
232 1 0.307933 0.110535 0.5
18 1 0.0881808 0.41079 0.5
126 1 0.145366 0.161677 0.5
283 1 0.15458 0.215737 0.5
224 1 0.210031 0.454634 0.5
284 1 0.462101 0.221831 0.5
384 1 0.440242 0.0821685 0.5
20 1 0.288471 0.232404 0.5
249 1 0.130328 0.323941 0.5
30 1 0.343601 0.374397 0.5
280 1 0.20529 0.412557 0.5
129 1 0.102361 0.294665 0.5
148 1 0.0524556 0.174294 0.5
56 1 0.309256 0.333487 0.5
360 1 0.116233 0.236619 0.5
88 1 0.226893 0.295402 0.5
137 1 0.09577 0.19125 0.5
335 1 0.423358 0.249977 0.5
162 1 0.418935 0.33734 0.5
379 1 0.138969 0.400618 0.5
76 1 0.392654 0.442179 0.5
143 1 0.187096 0.268728 0.5
391 1 0.178742 0.334234 0.5
222 1 0.0630083 0.0528727 0.5
361 1 0.0841053 0.477855 0.5
336 1 0.238659 0.488932 0.5
140 1 0.208374 0.228975 0.5
326 1 0.265425 0.311879 0.5
229 1 0.412093 0.292666 0.5
358 1 0.497489 0.256217 0.5
23 1 0.273558 0.0287623 0.5
160 1 0.0185776 0.202402 0.5
165 1 0.148305 0.470709 0.5
394 1 0.446014 0.125933 0.5
333 1 0.113616 0.448386 0.5
207 1 0.246761 0.346045 0.5
282 1 0.329966 0.435806 0.5
297 1 0.420833 0.408702 0.5
186 1 0.372415 0.176515 0.5
71 1 0.00946345 0.261203 0.5
375 1 0.473774 0.038898 0.5
21 1 0.184379 0.0117193 0.5
216 1 0.491481 0.490744 0.5
80 1 0.490287 0.336777 0.5
194 1 0.460682 0.364434 0.5
65 1 0.0139883 0.46506 0.5
38 1 0.0204539 0.417297 0.5
285 1 0.360249 0.469251 0.5
41 1 0.358194 0.00540148 0.5
209 1 0.476396 0.0956261 0.5
141 1 0.31804 0.497636 0.5
109 1 0.471471 0.40615 0.5
53 1 0.0291134 0.64836 0.5
75 1 0.185229 0.866632 0.5
69 1 0.0415285 0.539894 0.5
300 1 0.341962 0.681679 0.5
131 1 0.129516 0.95243 0.5
344 1 0.0858421 0.834247 0.5
146 1 0.195922 0.58672 0.5
269 1 0.402361 0.587987 0.5
400 1 0.130325 0.792886 0.5
387 1 0.332262 0.585356 0.5
352 1 0.114552 0.632936 0.5
97 1 0.144013 0.585031 0.5
39 1 0.404131 0.534037 0.5
89 1 0.171803 0.95283 0.5
227 1 0.312476 0.544955 0.5
266 1 0.151189 0.538403 0.5
213 1 0.113032 0.557726 0.5
325 1 0.156459 0.62855 0.5
98 1 0.414155 0.978796 0.5
112 1 0.255801 0.906549 0.5
339 1 0.0594979 0.717909 0.5
47 1 0.239853 0.602279 0.5
263 1 0.428533 0.617871 0.5
220 1 0.372612 0.964127 0.5
248 1 0.468009 0.822843 0.5
256 1 0.221337 0.954631 0.5
359 1 0.18438 0.662212 0.5
348 1 0.24226 0.558343 0.5
168 1 0.171284 0.504695 0.5
74 1 0.292194 0.592426 0.5
293 1 0.430086 0.733452 0.5
310 1 0.277201 0.521087 0.5
383 1 0.308647 0.916672 0.5
127 1 0.457281 0.860603 0.5
279 1 0.0799227 0.779902 0.5
291 1 0.199031 0.546304 0.5
48 1 0.251541 0.721723 0.5
346 1 0.377809 0.636498 0.5
202 1 0.431641 0.675885 0.5
156 1 0.0825816 0.532353 0.5
392 1 0.10978 0.74981 0.5
334 1 0.224459 0.683028 0.5
174 1 0.344057 0.730327 0.5
393 1 0.387179 0.680374 0.5
5 1 0.431321 0.941154 0.5
324 1 0.29537 0.63687 0.5
117 1 0.0718362 0.645495 0.5
340 1 0.35693 0.519785 0.5
347 1 0.487157 0.769774 0.5
226 1 0.368981 0.924185 0.5
33 1 0.193056 0.713586 0.5
353 1 0.335546 0.625948 0.5
397 1 0.26314 0.852988 0.5
332 1 0.124507 0.877493 0.5
290 1 0.441163 0.578269 0.5
208 1 0.0709329 0.595693 0.5
157 1 0.140562 0.671115 0.5
201 1 0.26134 0.664768 0.5
396 1 0.498187 0.564227 0.5
191 1 0.0421475 0.809599 0.5
144 1 0.395376 0.760724 0.5
225 1 0.0415429 0.755191 0.5
176 1 0.484675 0.969028 0.5
306 1 0.34659 0.844561 0.5
354 1 0.0749168 0.916916 0.5
212 1 0.0354902 0.686857 0.5
19 1 0.12736 0.836099 0.5
86 1 0.307417 0.821232 0.5
60 1 0.239745 0.819722 0.5
218 1 0.196741 0.76771 0.5
27 1 0.304046 0.75156 0.5
385 1 0.0554421 0.978706 0.5
368 1 0.187745 0.823991 0.5
58 1 0.468628 0.924177 0.5
121 1 0.0247514 0.902688 0.5
13 1 0.15693 0.746771 0.5
367 1 0.0971203 0.701178 0.5
135 1 0.214931 0.913935 0.5
103 1 0.308159 0.871985 0.5
289 1 0.0653858 0.872777 0.5
59 1 0.227727 0.872622 0.5
265 1 0.247241 0.765771 0.5
294 1 0.340549 0.779404 0.5
51 1 0.449104 0.514221 0.5
149 1 0.268566 0.960803 0.5
372 1 0.0132098 0.72272 0.5
316 1 0.282971 0.789576 0.5
31 1 0.39379 0.85777 0.5
366 1 0.315378 0.964979 0.5
87 1 0.427736 0.889192 0.5
114 1 0.470393 0.622332 0.5
118 1 0.0259834 0.583272 0.5
388 1 0.0390581 0.942611 0.5
313 1 0.14282 1.00057 0.5
173 1 0.454532 0.997776 0.5
151 1 0.486065 0.721534 0.5
49 1 0.00457281 0.9879 0.5
28 1 0.498242 0.868771 0.5
302 1 0.00363761 0.527303 0.5
264 1 0.122102 0.504445 0.5
255 1 0.770456 0.385453 0.5
139 1 0.656784 0.118848 0.5
52 1 0.890664 0.153866 0.5
178 1 0.831816 0.05068 0.5
62 1 0.933586 0.230229 0.5
188 1 0.914887 0.487279 0.5
134 1 0.523216 0.378712 0.5
399 1 0.860788 0.104794 0.5
37 1 1.00075 0.346754 0.5
171 1 0.963717 0.00752996 0.5
172 1 0.608852 0.432396 0.5
42 1 0.993298 0.120041 0.5
390 1 0.525047 0.0131836 0.5
106 1 0.732177 0.271602 0.5
83 1 0.905039 0.106213 0.5
189 1 0.600853 0.089767 0.5
77 1 0.587569 0.344409 0.5
311 1 0.641948 0.0783216 0.5
79 1 0.7361 0.172227 0.5
11 1 0.782309 0.152914 0.5
322 1 0.817486 0.114918 0.5
25 1 0.856984 0.427658 0.5
50 1 0.931554 0.305078 0.5
267 1 0.551295 0.0850038 0.5
115 1 0.828633 0.214539 0.5
236 1 0.762976 0.488007 0.5
119 1 0.516471 0.053046 0.5
362 1 0.675515 0.199121 0.5
199 1 0.670448 0.159144 0.5
190 1 0.748252 0.132066 0.5
99 1 0.971543 0.284539 0.5
389 1 0.911031 0.269835 0.5
303 1 0.920453 0.190948 0.5
273 1 0.65007 0.452922 0.5
113 1 0.61859 0.224959 0.5
179 1 0.695973 0.248951 0.5
2 1 0.600126 0.146129 0.5
371 1 0.736005 0.217415 0.5
374 1 0.719014 0.0244394 0.5
376 1 0.924743 0.428232 0.5
195 1 0.798967 0.354623 0.5
315 1 0.831028 0.258112 0.5
161 1 0.526266 0.459402 0.5
317 1 0.760463 0.0259719 0.5
94 1 0.781823 0.194129 0.5
193 1 0.882285 0.303515 0.5
84 1 0.792389 0.0790181 0.5
205 1 0.681709 0.339063 0.5
241 1 0.749831 0.33286 0.5
345 1 0.638993 0.180981 0.5
320 1 0.881473 0.239797 0.5
330 1 0.814485 0.0113945 0.5
245 1 0.530738 0.205732 0.5
110 1 0.935303 0.141414 0.5
307 1 0.737657 0.0815305 0.5
66 1 0.636438 0.338425 0.5
327 1 0.781879 0.297686 0.5
122 1 0.507346 0.121279 0.5
17 1 0.773854 0.253155 0.5
16 1 0.606528 0.283259 0.5
355 1 0.562198 0.130224 0.5
228 1 0.717281 0.359704 0.5
82 1 0.819048 0.390345 0.5
223 1 0.87012 0.372831 0.5
70 1 0.805475 0.471862 0.5
292 1 0.916977 0.0278912 0.5
270 1 0.694358 0.459783 0.5
136 1 0.864182 0.0176579 0.5
181 1 0.953503 0.344615 0.5
180 1 0.568356 0.189711 0.5
124 1 0.832073 0.300872 0.5
233 1 0.779302 0.431636 0.5
147 1 0.977273 0.439171 0.5
15 1 0.973625 0.160665 0.5
133 1 0.670999 0.394354 0.5
356 1 0.705621 0.302808 0.5
350 1 0.867237 0.191962 0.5
382 1 0.878009 0.468918 0.5
363 1 0.661351 0.492477 0.5
183 1 0.580827 0.393111 0.5
381 1 0.736389 0.447863 0.5
259 1 0.622436 0.381707 0.5
9 1 0.623481 0.0423955 0.5
305 1 0.558948 0.302862 0.5
239 1 0.955165 0.395851 0.5
343 1 0.653632 0.255604 0.5
357 1 0.520146 0.417146 0.5
254 1 0.965818 0.0509314 0.5
295 1 0.565906 0.451761 0.5
8 1 0.565513 0.0290381 0.5
120 1 0.567744 0.493802 0.5
55 1 0.981609 0.228947 0.5
6 1 0.697434 0.116568 0.5
370 1 0.671214 0.0457615 0.5
81 1 0.881148 0.0669726 0.5
373 1 0.582614 0.537483 0.5
215 1 0.856567 0.504775 0.5
155 1 0.803793 0.638246 0.5
204 1 0.947849 0.624627 0.5
312 1 0.848118 0.580602 0.5
298 1 0.654099 0.603043 0.5
369 1 0.967437 0.729236 0.5
35 1 0.940232 0.947648 0.5
159 1 0.847884 0.668331 0.5
271 1 0.595368 0.819667 0.5
68 1 0.803974 0.598199 0.5
72 1 0.607638 0.78042 0.5
175 1 0.593432 0.59509 0.5
252 1 0.887507 0.940609 0.5
231 1 0.727065 0.560082 0.5
287 1 0.952391 0.510484 0.5
257 1 0.79982 0.687007 0.5
274 1 0.530299 0.738983 0.5
198 1 0.57983 0.646466 0.5
138 1 0.984271 0.562814 0.5
93 1 0.98567 0.686073 0.5
235 1 0.533217 0.519863 0.5
286 1 0.640854 0.74187 0.5
85 1 0.543053 0.617016 0.5
12 1 0.740907 0.637838 0.5
166 1 0.770669 0.571051 0.5
296 1 0.849734 0.620311 0.5
164 1 0.910878 0.642811 0.5
3 1 0.512365 0.650432 0.5
299 1 0.760836 0.678268 0.5
22 1 0.716036 0.678873 0.5
377 1 0.71224 0.749718 0.5
323 1 0.747204 0.782629 0.5
4 1 0.759108 0.732908 0.5
104 1 0.545366 0.679423 0.5
73 1 0.871772 0.71559 0.5
319 1 0.735933 0.896795 0.5
242 1 0.921623 0.767257 0.5
328 1 0.926821 0.718659 0.5
321 1 0.906872 0.685049 0.5
24 1 0.585613 0.863312 0.5
96 1 0.587709 0.697979 0.5
243 1 0.802323 0.896681 0.5
203 1 0.835377 0.921851 0.5
100 1 0.873264 0.843326 0.5
278 1 0.841096 0.763471 0.5
185 1 0.685205 0.717017 0.5
154 1 0.571276 0.75562 0.5
247 1 0.678939 0.77077 0.5
184 1 0.889126 0.541874 0.5
36 1 0.791049 0.76291 0.5
101 1 0.914867 0.842937 0.5
258 1 0.640017 0.805724 0.5
275 1 0.747384 0.823091 0.5
234 1 0.668476 0.661812 0.5
250 1 0.913799 0.891265 0.5
308 1 0.854603 0.884141 0.5
54 1 0.795379 0.812532 0.5
95 1 0.819256 0.72266 0.5
341 1 0.614034 0.988652 0.5
246 1 0.530872 0.792141 0.5
378 1 0.626197 0.67751 0.5
192 1 0.717408 0.850191 0.5
7 1 0.766104 0.863426 0.5
111 1 0.766973 0.93757 0.5
177 1 0.96891 0.864951 0.5
34 1 0.856156 0.969043 0.5
380 1 0.68539 0.575805 0.5
167 1 0.523116 0.943555 0.5
364 1 0.626973 0.86333 0.5
351 1 0.957676 0.903849 0.5
206 1 0.98548 0.812636 0.5
130 1 0.604083 0.899408 0.5
398 1 0.667995 0.849821 0.5
314 1 0.684098 0.89642 0.5
349 1 0.708138 0.941687 0.5
197 1 0.884708 0.798061 0.5
260 1 0.910601 0.59239 0.5
365 1 0.823216 0.541555 0.5
221 1 0.536524 0.895434 0.5
304 1 0.712138 0.801481 0.5
14 1 0.674566 0.964686 0.5
163 1 0.782273 0.985976 0.5
210 1 0.555366 0.835664 0.5
309 1 0.670121 0.536529 0.5
318 1 0.70569 0.611262 0.5
116 1 0.943028 0.81246 0.5
219 1 0.567471 0.942464 0.5
45 1 0.646423 0.916612 0.5
43 1 0.784407 0.528875 0.5
61 1 0.741018 0.974462 0.5
211 1 0.91947 0.983423 0.5
108 1 0.625707 0.568824 0.5
182 1 0.608575 0.946638 0.5
214 1 0.997717 0.773937 0.5
63 1 0.563904 0.986279 0.5
187 1 0.992115 0.629049 0.5
92 1 0.984671 0.949361 0.5
10 1 0.542192 0.570523 0.5
1 1 0.60984 0.501842 0.5
