LAMMPS (15 Sep 2022)
OMP_NUM_THREADS environment is not set. Defaulting to 1 thread. (src/comm.cpp:98)
  using 1 OpenMP thread(s) per MPI task
# 2d WCA system, random initial configuration

#variable density equal 0.5
variable initial_temperature equal 3.0
variable final_temperature equal 0.1
variable dt equal 0.01
variable tau equal 100*${dt}
variable tau equal 100*0.01
variable thermo_time equal 50000*${dt}
variable thermo_time equal 50000*0.01
variable equil_steps equal 50000
variable run_steps equal 100000

units           lj
atom_style      atomic
dimension       2

lattice         sq ${density}
lattice         sq 1.0
Lattice spacing in x,y,z = 1 1 1
region          box block 0 20 0 20 -0.5 0.5
# number of atom types
create_box      1 box
Created orthogonal box = (0 0 -0.5) to (20 20 0.5)
  2 by 2 by 1 MPI processor grid
create_atoms    1 box
Created 400 atoms
  using lattice units in orthogonal box = (0 0 -0.5) to (20 20 0.5)
  create_atoms CPU = 0.001 seconds
mass 1 1.0

velocity all create ${initial_temperature} 12340
velocity all create 3 12340

pair_style      lj/cut 1.0
#type_1 type_2 epsilon sigma cutoff
pair_coeff      1 1 10.0 0.89089871814 1.0
pair_modify shift yes

timestep ${dt}
timestep 0.01
thermo ${thermo_time}
thermo 500

fix 1 all nvt temp ${initial_temperature} ${initial_temperature} ${tau}
fix 1 all nvt temp 3 ${initial_temperature} ${tau}
fix 1 all nvt temp 3 3 ${tau}
fix 1 all nvt temp 3 3 1
run ${equil_steps}
run 50000
Generated 0 of 0 mixed pair_coeff terms from geometric mixing rule
Neighbor list info ...
  update: every = 1 steps, delay = 0 steps, check = yes
  max neighbors/atom: 2000, page size: 100000
  master list distance cutoff = 1.3
  ghost atom cutoff = 1.3
  binsize = 0.65, bins = 31 31 2
  1 neighbor lists, perpetual/occasional/extra = 1 0 0
  (1) pair lj/cut, perpetual
      attributes: half, newton on
      pair build: half/bin/atomonly/newton
      stencil: half/bin/2d
      bin: standard
Per MPI rank memory allocation (min/avg/max) = 3.049 | 3.049 | 3.049 Mbytes
   Step          Temp          E_pair         E_mol          TotEng         Press     
         0   3              0              0              2.9925         2.9925       
       500   3.3348065      1.4470347      0              4.7735042      30.111877    
      1000   3.1989898      1.6116743      0              4.8026666      31.4031      
      1500   3.1744177      1.5090583      0              4.67554        30.417439    
      2000   2.7608054      1.4164945      0              4.1703979      29.304198    
      2500   2.9489776      1.5326956      0              4.4743008      30.616854    
      3000   2.8739599      1.6375403      0              4.5043153      32.457092    
      3500   3.0009107      1.5772593      0              4.5706676      31.239779    
      4000   3.1438999      1.3930291      0              4.5290692      29.98638     
      4500   3.1242629      1.6545876      0              4.7710399      32.726845    
      5000   2.9967658      1.9111786      0              4.9004525      35.771495    
      5500   3.1076665      1.5956975      0              4.6955948      31.543333    
      6000   3.307641       1.6713291      0              4.9707009      32.84967     
      6500   3.1184339      1.6673305      0              4.7779684      32.664764    
      7000   2.9343742      1.5002437      0              4.427282       30.845924    
      7500   2.960544       1.5424609      0              4.4956035      31.303525    
      8000   2.9182597      1.4323496      0              4.3433137      28.150068    
      8500   3.0701369      1.4668867      0              4.5293482      29.927237    
      9000   2.9785605      1.6616548      0              4.6327689      31.56082     
      9500   3.2913345      1.8059761      0              5.0890823      34.754971    
     10000   2.910681       1.9477748      0              4.8511791      36.599662    
     10500   3.0858304      1.5110359      0              4.5891517      30.390767    
     11000   3.1896879      1.4825201      0              4.6642338      30.621173    
     11500   2.7969693      1.6429975      0              4.4329743      31.770523    
     12000   3.019579       1.5712683      0              4.5832984      31.48534     
     12500   2.9463469      1.4233443      0              4.3623254      28.844361    
     13000   2.8222136      1.4931735      0              4.3083316      30.584238    
     13500   2.8225669      1.510229       0              4.3257395      30.28394     
     14000   2.9668549      1.4687108      0              4.4281485      29.534175    
     14500   2.6891446      1.7335197      0              4.4159415      33.099722    
     15000   2.9355166      1.6075348      0              4.5357126      31.697181    
     15500   2.8717593      1.4101314      0              4.2747113      28.931602    
     16000   2.8012987      1.5163459      0              4.3106414      30.256769    
     16500   2.9856439      1.5529192      0              4.531099       31.46019     
     17000   3.2685846      1.2819982      0              4.5424113      27.759386    
     17500   3.1164026      1.7936452      0              4.9022568      34.088064    
     18000   3.0371218      1.873555       0              4.903084       34.753508    
     18500   3.2000014      1.6334693      0              4.8254707      32.218267    
     19000   3.022275       1.5270078      0              4.5417271      30.827252    
     19500   2.9983791      1.5576104      0              4.5484935      31.512598    
     20000   3.1088529      1.4600212      0              4.5611019      29.38589     
     20500   2.9652411      1.551202       0              4.50903        30.970291    
     21000   2.9578953      1.5293345      0              4.479835       30.606174    
     21500   2.8152157      1.5915295      0              4.3997071      30.95497     
     22000   3.0775377      1.5743548      0              4.6441987      30.44657     
     22500   3.1111232      1.5909484      0              4.6942938      31.619157    
     23000   3.1250275      1.7276828      0              4.8448977      33.506741    
     23500   2.8670456      1.5818078      0              4.4416857      31.115031    
     24000   2.7729254      1.5854427      0              4.3514357      30.98747     
     24500   2.8191975      1.6402962      0              4.4524457      32.066221    
     25000   2.9569481      1.6907762      0              4.6403319      32.216541    
     25500   3.0423856      1.8308703      0              4.86565        34.150308    
     26000   2.9295435      1.5838236      0              4.5060432      31.598403    
     26500   3.0663148      1.6948542      0              4.7535032      33.026705    
     27000   3.2872675      1.896774       0              5.1758233      35.806601    
     27500   3.1454722      1.5218749      0              4.6594834      30.491421    
     28000   2.9393708      1.6426677      0              4.5746901      32.393973    
     28500   2.8795891      1.6334558      0              4.5058459      32.146235    
     29000   3.004236       1.4743651      0              4.4710905      29.305007    
     29500   2.941298       1.5641866      0              4.4981313      31.383299    
     30000   2.7892584      1.5446544      0              4.3269397      30.662418    
     30500   2.8865907      1.6160515      0              4.4954257      31.16104     
     31000   2.9556033      1.3919376      0              4.3401519      28.867427    
     31500   2.9613108      1.3001528      0              4.2540603      27.807286    
     32000   2.9196536      1.4436268      0              4.3559813      29.500698    
     32500   2.8424833      1.5469327      0              4.3823098      30.942726    
     33000   3.1288462      1.6030503      0              4.7240744      32.058449    
     33500   3.0758431      1.6161408      0              4.6842942      32.282784    
     34000   2.9065379      1.6598238      0              4.5590954      32.503129    
     34500   2.9131171      1.6193971      0              4.5252314      31.88752     
     35000   2.917499       1.5661244      0              4.4763297      31.605443    
     35500   3.0943901      1.5877463      0              4.6744004      31.433677    
     36000   3.2481491      1.695799       0              4.9358277      32.950764    
     36500   3.2583751      1.394938       0              4.6451671      28.616578    
     37000   3.1298809      1.7415474      0              4.8636036      33.803431    
     37500   2.7939079      1.3608572      0              4.1477803      28.258095    
     38000   2.9359358      1.5749915      0              4.5035875      30.993337    
     38500   2.9908927      1.5832319      0              4.5666475      31.065426    
     39000   3.1554287      1.5487514      0              4.6962915      31.938297    
     39500   2.9534434      1.6009291      0              4.5469889      30.841574    
     40000   3.0581708      1.5527691      0              4.6032945      31.702057    
     40500   2.8724155      1.6470454      0              4.5122798      31.955782    
     41000   3.0291888      1.3998825      0              4.4214983      29.901983    
     41500   2.8241583      1.5301956      0              4.3472935      30.223897    
     42000   2.9510041      1.593233       0              4.5368596      31.206262    
     42500   3.0581784      1.5285468      0              4.5790798      31.098837    
     43000   2.9720822      1.5425007      0              4.5071528      30.85588     
     43500   3.1300317      1.7011243      0              4.8233309      33.011998    
     44000   3.1137816      1.7446484      0              4.8506456      34.089367    
     44500   2.9429603      1.4989536      0              4.4345566      30.123314    
     45000   3.0357166      1.6315129      0              4.6596403      32.206388    
     45500   3.210487       1.488968       0              4.6914287      30.671604    
     46000   3.0465162      1.7980811      0              4.836981       34.561236    
     46500   3.132994       1.5315304      0              4.6566919      30.418735    
     47000   3.0813328      1.875963       0              4.9495925      34.833987    
     47500   3.1277194      1.544319       0              4.6642192      31.152618    
     48000   2.9171571      1.4789282      0              4.3887924      30.263492    
     48500   2.7499862      1.7005883      0              4.4436995      32.646297    
     49000   3.0066988      1.5532524      0              4.5524345      31.091924    
     49500   3.1981373      1.4759787      0              4.6661207      30.781346    
     50000   3.294177       1.6812736      0              4.9672152      32.885961    
Loop time of 0.937623 on 4 procs for 50000 steps with 400 atoms

Performance: 46073940.466 tau/day, 53326.320 timesteps/s, 21.331 Matom-step/s
99.2% CPU use with 4 MPI tasks x 1 OpenMP threads

MPI task timing breakdown:
Section |  min time  |  avg time  |  max time  |%varavg| %total
---------------------------------------------------------------
Pair    | 0.16047    | 0.17776    | 0.1907     |   2.7 | 18.96
Neigh   | 0.22379    | 0.22992    | 0.24592    |   1.9 | 24.52
Comm    | 0.31173    | 0.33233    | 0.35337    |   2.7 | 35.44
Output  | 0.00070734 | 0.001803   | 0.0050704  |   4.4 |  0.19
Modify  | 0.11413    | 0.11651    | 0.1183     |   0.5 | 12.43
Other   |            | 0.0793     |            |       |  8.46

Nlocal:            100 ave         101 max          99 min
Histogram: 1 0 0 0 0 2 0 0 0 1
Nghost:          59.75 ave          60 max          59 min
Histogram: 1 0 0 0 0 0 0 0 0 3
Neighs:         267.25 ave         282 max         260 min
Histogram: 2 0 0 1 0 0 0 0 0 1

Total # of neighbors = 1069
Ave neighs/atom = 2.6725
Neighbor list builds = 16896
Dangerous builds = 0

unfix 1
dump           1 all atom ${run_steps} 2dWCA_T${final_temperature}_d${density}_N${run_steps}.lammpstrj
dump           1 all atom 100000 2dWCA_T${final_temperature}_d${density}_N${run_steps}.lammpstrj
dump           1 all atom 100000 2dWCA_T0.1_d${density}_N${run_steps}.lammpstrj
dump           1 all atom 100000 2dWCA_T0.1_d1.0_N${run_steps}.lammpstrj
dump           1 all atom 100000 2dWCA_T0.1_d1.0_N100000.lammpstrj
dump           2 all dcd ${thermo_time} 2dWCA_T${final_temperature}_d${density}_N${run_steps}.dcd
dump           2 all dcd 500 2dWCA_T${final_temperature}_d${density}_N${run_steps}.dcd
dump           2 all dcd 500 2dWCA_T0.1_d${density}_N${run_steps}.dcd
dump           2 all dcd 500 2dWCA_T0.1_d1.0_N${run_steps}.dcd
dump           2 all dcd 500 2dWCA_T0.1_d1.0_N100000.dcd
fix 1 all nvt temp ${initial_temperature} ${final_temperature} ${tau}
fix 1 all nvt temp 3 ${final_temperature} ${tau}
fix 1 all nvt temp 3 0.1 ${tau}
fix 1 all nvt temp 3 0.1 1

run ${run_steps}
run 100000
Generated 0 of 0 mixed pair_coeff terms from geometric mixing rule
Per MPI rank memory allocation (min/avg/max) = 3.076 | 3.076 | 3.076 Mbytes
   Step          Temp          E_pair         E_mol          TotEng         Press     
     50000   3.294177       1.6812736      0              4.9672152      32.885961    
     50500   2.9380615      1.4927966      0              4.4235129      29.962156    
     51000   3.042125       1.5915828      0              4.6261025      32.184987    
     51500   2.9959911      1.7116688      0              4.7001699      32.838075    
     52000   3.0385629      1.5260511      0              4.5570176      30.140463    
     52500   3.0341695      1.6526368      0              4.6792209      33.043116    
     53000   2.9920486      1.5318787      0              4.5164471      30.819155    
     53500   2.8878539      1.6242229      0              4.5048572      31.848953    
     54000   2.972416       1.6578426      0              4.6228276      32.155937    
     54500   3.2351154      1.3612164      0              4.588244       28.894558    
     55000   2.7920341      1.4063051      0              4.1913592      28.902959    
     55500   2.8161493      1.4495804      0              4.2586894      29.460135    
     56000   2.6547976      1.449268       0              4.0974286      29.625529    
     56500   2.8296506      1.364943       0              4.1875195      28.310841    
     57000   2.8366453      1.4075005      0              4.2370542      28.79276     
     57500   2.8303071      1.4472172      0              4.2704485      28.712576    
     58000   2.636444       1.4118136      0              4.0416665      29.421397    
     58500   2.6251809      1.5498478      0              4.1684658      30.802107    
     59000   2.7728966      1.3085985      0              4.0745628      28.045875    
     59500   2.7723725      1.3064646      0              4.0719062      27.367666    
     60000   2.6845656      1.3436404      0              4.0214946      27.761576    
     60500   2.5575779      1.4166274      0              3.9678113      28.911878    
     61000   2.6968943      1.1765459      0              3.866698       25.080027    
     61500   2.5707857      1.195522       0              3.7598807      25.574801    
     62000   2.8000079      1.1256206      0              3.9186285      25.645335    
     62500   2.5449865      1.3994802      0              3.9381042      28.703051    
     63000   2.5962134      1.1868001      0              3.7765229      26.053725    
     63500   2.431159       1.315981       0              3.7410621      26.724915    
     64000   2.5636506      1.1170966      0              3.6743381      25.354462    
     64500   2.4502782      1.2831231      0              3.7272756      26.436428    
     65000   2.3843447      1.2238422      0              3.602226       25.868174    
     65500   2.5338121      1.169505       0              3.6969825      25.255368    
     66000   2.3990021      1.3504537      0              3.7434583      27.501815    
     66500   2.5377893      1.3059752      0              3.83742        27.432089    
     67000   2.5633932      1.2497534      0              3.806738       26.199783    
     67500   2.5375227      1.3032473      0              3.8344262      27.08246     
     68000   2.442839       1.184709       0              3.6214409      25.854401    
     68500   2.5404109      1.2191776      0              3.7532375      26.727329    
     69000   2.7189982      1.1653239      0              3.8775246      25.612122    
     69500   2.4851154      1.3893243      0              3.8682269      28.469694    
     70000   2.6402311      1.2139104      0              3.8475409      26.004486    
     70500   2.5549444      1.2250949      0              3.7736519      25.808571    
     71000   2.5032367      1.3562074      0              3.853186       28.280415    
     71500   2.6043828      1.3198434      0              3.9177152      27.290091    
     72000   2.3362142      1.1698525      0              3.5002262      25.777012    
     72500   2.363043       1.2940912      0              3.6512266      27.092596    
     73000   2.3505857      1.1037193      0              3.4484285      24.73505     
     73500   2.4432486      1.1579235      0              3.595064       25.250297    
     74000   2.4517887      1.2958065      0              3.7414657      27.15307     
     74500   2.3497972      1.18406        0              3.5279827      25.309551    
     75000   2.3759699      1.1845097      0              3.5545396      25.141379    
     75500   2.2347628      1.0742108      0              3.3033868      23.822476    
     76000   2.1839211      1.1342803      0              3.3127416      24.668447    
     76500   2.2879895      1.1134871      0              3.3957566      24.394969    
     77000   2.1684315      1.2490835      0              3.412094       26.186287    
     77500   2.0590689      1.2276365      0              3.2815577      25.887661    
     78000   2.1115481      1.1034824      0              3.2097516      24.106289    
     78500   2.1773289      1.0122787      0              3.1841642      22.389924    
     79000   1.983864       1.1616392      0              3.1405436      24.688506    
     79500   2.2005316      1.016205       0              3.2112352      22.763788    
     80000   2.2255353      1.0652256      0              3.285197       23.564113    
     80500   2.0789912      1.153637       0              3.2274307      25.3476      
     81000   2.0026841      1.107836       0              3.1055134      24.175402    
     81500   2.0093188      0.89369429     0              2.8979898      20.439561    
     82000   2.0870024      0.79317383     0              2.8749588      19.397302    
     82500   2.0607144      0.87587926     0              2.9314419      20.501952    
     83000   2.222591       1.0203333      0              3.2373677      23.011383    
     83500   2.1601888      1.023928       0              3.1787163      23.165229    
     84000   1.9461013      1.0141707      0              2.9554068      22.397899    
     84500   2.0304268      0.80331133     0              2.828662       19.069017    
     85000   2.0127535      0.96446459     0              2.9721862      21.356439    
     85500   2.0104534      1.0123727      0              3.0178         22.396153    
     86000   1.90008        0.71119061     0              2.6065205      17.874609    
     86500   1.9171412      0.82276998     0              2.7351183      19.745009    
     87000   1.9635463      0.90594154     0              2.8645789      20.924352    
     87500   2.05314        0.81512681     0              2.8631339      19.344665    
     88000   1.9900781      0.98263455     0              2.9677374      22.15789     
     88500   1.9506437      0.9544405      0              2.9002076      21.742934    
     89000   1.8381713      0.82570705     0              2.659283       19.697636    
     89500   1.8603717      0.74698918     0              2.60271        18.859027    
     90000   1.6591131      0.9046804      0              2.5596457      20.751264    
     90500   1.8351035      0.82858306     0              2.6590988      19.223216    
     91000   1.9496628      0.8225974      0              2.7673861      19.65233     
     91500   1.7170692      0.74377117     0              2.4565477      18.459165    
     92000   1.7817633      0.71400955     0              2.4913184      18.005115    
     92500   1.6536904      0.77903085     0              2.428587       18.549944    
     93000   1.8330788      0.75108061     0              2.5795767      18.433583    
     93500   1.8455072      0.84668895     0              2.6875824      19.7562      
     94000   1.8320613      0.7448618      0              2.5723429      18.909964    
     94500   1.8656517      0.71486124     0              2.5758488      17.902304    
     95000   1.7955397      0.66109049     0              2.4521414      17.059622    
     95500   1.7077237      0.80583046     0              2.5092849      19.289071    
     96000   1.6973685      0.71222438     0              2.4053495      17.940292    
     96500   1.6974936      0.78094515     0              2.474195       18.982619    
     97000   1.7461085      0.75041968     0              2.4921629      19.056457    
     97500   1.6389303      0.6830447      0              2.3178777      17.094957    
     98000   1.6233464      0.64671601     0              2.266004       16.407569    
     98500   1.508167       0.75361935     0              2.2580159      18.195305    
     99000   1.4762268      0.67996182     0              2.152498       17.129462    
     99500   1.4454386      0.63419832     0              2.0760234      16.303864    
    100000   1.5376382      0.56465255     0              2.0984467      15.205992    
    100500   1.619206       0.53550566     0              2.1506637      15.000493    
    101000   1.5994024      0.6610321      0              2.256436       17.012515    
    101500   1.5724432      0.64452566     0              2.2130377      16.831511    
    102000   1.5270921      0.66718481     0              2.1904592      16.791311    
    102500   1.4834895      0.5985749      0              2.0783556      15.476087    
    103000   1.5285215      0.65317134     0              2.1778715      16.295931    
    103500   1.4294237      0.68446145     0              2.1103116      16.726178    
    104000   1.4536716      0.69798829     0              2.1480257      18.083214    
    104500   1.4524377      0.53174139     0              1.980548       14.152119    
    105000   1.5270114      0.51683035     0              2.0400242      14.053066    
    105500   1.3938405      0.59081229     0              1.9811682      15.460058    
    106000   1.3760448      0.60036391     0              1.9729686      15.429995    
    106500   1.4561021      0.48977055     0              1.9422324      13.573623    
    107000   1.442716       0.54409138     0              1.9832006      14.69268     
    107500   1.4491496      0.49622737     0              1.9417541      13.568061    
    108000   1.3174875      0.56183005     0              1.8760238      14.700262    
    108500   1.2739866      0.4855813      0              1.7563829      13.637577    
    109000   1.1375086      0.56469376     0              1.6993586      14.815465    
    109500   1.2219398      0.47140357     0              1.6902885      12.717369    
    110000   1.1444002      0.48984456     0              1.6313837      13.918959    
    110500   1.0686742      0.45381746     0              1.51982        12.805454    
    111000   1.1745379      0.45995526     0              1.6315568      13.033876    
    111500   1.1939356      0.44673608     0              1.6376868      13.361872    
    112000   1.3058339      0.3747784      0              1.6773477      11.573748    
    112500   1.2596121      0.50574336     0              1.7622064      14.11164     
    113000   1.1334402      0.44405586     0              1.5746625      12.779174    
    113500   1.1253055      0.47015434     0              1.5926465      13.241472    
    114000   1.1788527      0.46104734     0              1.6369529      13.069247    
    114500   1.1937221      0.55635791     0              1.7470957      14.68628     
    115000   1.0884377      0.50712081     0              1.5928375      13.801436    
    115500   1.1037854      0.47322144     0              1.5742474      13.008574    
    116000   1.1814489      0.36527552     0              1.5437708      11.295176    
    116500   1.0745905      0.42041953     0              1.4923236      12.164005    
    117000   1.085999       0.40405027     0              1.4873342      11.820601    
    117500   1.0555894      0.38412657     0              1.437077       11.890034    
    118000   1.0310139      0.35187176     0              1.3803081      10.71873     
    118500   0.95795005     0.35889963     0              1.3144548      10.902753    
    119000   0.99526131     0.35797276     0              1.3507459      11.136536    
    119500   0.97909684     0.3033638      0              1.2800129      9.8232317    
    120000   0.86148074     0.3980377      0              1.2573647      11.133127    
    120500   0.87511485     0.33916585     0              1.2120929      10.252443    
    121000   0.88226569     0.36241194     0              1.242472       10.677218    
    121500   0.91003193     0.30039172     0              1.2081486      9.8423686    
    122000   0.89351374     0.3161847      0              1.2074647      9.5171357    
    122500   0.87293815     0.31972694     0              1.1904827      9.8738546    
    123000   0.82520416     0.25899733     0              1.0821385      8.7403988    
    123500   0.81726121     0.28774758     0              1.1029656      9.2433425    
    124000   0.87336606     0.25901059     0              1.1301932      8.6040963    
    124500   0.80744579     0.26205011     0              1.0674773      8.7196793    
    125000   0.79076241     0.3030329      0              1.0918184      9.5790683    
    125500   0.77937642     0.26619197     0              1.04362        8.6842427    
    126000   0.78873043     0.2583968      0              1.0451554      8.7182268    
    126500   0.77171334     0.26633952     0              1.0361236      8.4755907    
    127000   0.81675062     0.23161416     0              1.0463229      7.8114163    
    127500   0.7577323      0.26258209     0              1.0184201      8.743001     
    128000   0.80721786     0.25553474     0              1.0607346      8.3772935    
    128500   0.74229787     0.2309271      0              0.97136923     7.8383215    
    129000   0.73372584     0.27666215     0              1.0085537      8.7563476    
    129500   0.74230467     0.23879242     0              0.97924132     7.9957244    
    130000   0.72965129     0.22856072     0              0.95638788     8.0667224    
    130500   0.66842151     0.23489103     0              0.90164148     7.8841387    
    131000   0.69049872     0.18300241     0              0.87177488     6.8488905    
    131500   0.65704263     0.23469618     0              0.89009621     7.9032163    
    132000   0.64469425     0.18405026     0              0.82713278     6.8813366    
    132500   0.64074229     0.17714135     0              0.81628178     6.7719773    
    133000   0.60010369     0.22239017     0              0.8209936      7.8239069    
    133500   0.61104199     0.21886683     0              0.82838121     7.3855356    
    134000   0.55685004     0.16969133     0              0.72514925     6.4342057    
    134500   0.51716855     0.17204178     0              0.68791741     6.4069056    
    135000   0.51537584     0.14969986     0              0.66378726     6.1206624    
    135500   0.50494951     0.14143129     0              0.64511843     5.7304866    
    136000   0.48101377     0.14264859     0              0.62245983     5.8888404    
    136500   0.49035092     0.14932234     0              0.63844738     5.8808046    
    137000   0.49176747     0.14058083     0              0.63111888     5.781104     
    137500   0.47622742     0.17019284     0              0.6452297      6.302825     
    138000   0.46288451     0.14245579     0              0.60418309     5.7758551    
    138500   0.44356985     0.13959456     0              0.58205549     5.5439103    
    139000   0.4296525      0.14274767     0              0.57132604     5.7329605    
    139500   0.43571858     0.10768212     0              0.5423114      4.7301348    
    140000   0.37785702     0.13338848     0              0.51030085     5.3690615    
    140500   0.37674856     0.12663902     0              0.50244571     5.4453309    
    141000   0.38258287     0.097268376    0              0.47889478     4.3299866    
    141500   0.37550771     0.1074611      0              0.48203004     4.4749643    
    142000   0.35931627     0.062333105    0              0.42075108     3.3721074    
    142500   0.33767213     0.080375421    0              0.41720337     3.8777117    
    143000   0.33470037     0.08210813     0              0.41597175     3.9885619    
    143500   0.30111784     0.075721191    0              0.37608624     3.6387499    
    144000   0.28664783     0.062955682    0              0.34888689     3.3689115    
    144500   0.23012337     0.065863044    0              0.2954111      3.2205077    
    145000   0.2432955      0.057385372    0              0.30007263     3.0563302    
    145500   0.20899149     0.062251343    0              0.27072036     3.1581842    
    146000   0.21184697     0.049883766    0              0.26120112     2.7099397    
    146500   0.20510453     0.041114285    0              0.24570606     2.4683135    
    147000   0.19275859     0.033152092    0              0.22542878     2.085824     
    147500   0.16888547     0.040748477    0              0.20921173     2.4865726    
    148000   0.15730708     0.037117649    0              0.19403146     2.3848518    
    148500   0.14675919     0.028844766    0              0.17523706     1.9347679    
    149000   0.13650594     0.029715639    0              0.16588031     1.9920456    
    149500   0.11600839     0.022486505    0              0.13820488     1.6504228    
    150000   0.11089768     0.022004041    0              0.13262448     1.5985644    
Loop time of 1.57862 on 4 procs for 100000 steps with 400 atoms

Performance: 54731295.879 tau/day, 63346.407 timesteps/s, 25.339 Matom-step/s
99.3% CPU use with 4 MPI tasks x 1 OpenMP threads

MPI task timing breakdown:
Section |  min time  |  avg time  |  max time  |%varavg| %total
---------------------------------------------------------------
Pair    | 0.28087    | 0.3077     | 0.33547    |   3.6 | 19.49
Neigh   | 0.29558    | 0.30396    | 0.32399    |   2.1 | 19.25
Comm    | 0.56986    | 0.5935     | 0.62212    |   2.7 | 37.60
Output  | 0.0081811  | 0.0083232  | 0.0087267  |   0.3 |  0.53
Modify  | 0.22359    | 0.22903    | 0.23387    |   0.9 | 14.51
Other   |            | 0.1361     |            |       |  8.62

Nlocal:            100 ave         102 max          98 min
Histogram: 1 0 1 0 0 0 0 1 0 1
Nghost:             59 ave          60 max          58 min
Histogram: 2 0 0 0 0 0 0 0 0 2
Neighs:            293 ave         300 max         288 min
Histogram: 2 0 0 0 0 1 0 0 0 1

Total # of neighbors = 1172
Ave neighs/atom = 2.93
Neighbor list builds = 23961
Dangerous builds = 0
Total wall time: 0:00:02
